DF-ISE text

Info {
  version   = 1.0
  type      = xyplot
  datasets  = [
    "time"
    "electrode_2 OuterVoltage" "electrode_2 InnerVoltage" "electrode_2 QuasiFermiPotential" "electrode_2 DisplacementCurrent" "electrode_2 eCurrent"
    "electrode_2 hCurrent" "electrode_2 TotalCurrent" "electrode_2 Charge" "electrode_1 OuterVoltage" "electrode_1 InnerVoltage"
    "electrode_1 QuasiFermiPotential" "electrode_1 DisplacementCurrent" "electrode_1 eCurrent" "electrode_1 hCurrent" "electrode_1 TotalCurrent"
    "electrode_1 Charge" ]
  functions = [
    Time
    OuterVoltage InnerVoltage QuasiFermiPotential DisplacementCurrent eCurrent
    hCurrent TotalCurrent Charge OuterVoltage InnerVoltage
    QuasiFermiPotential DisplacementCurrent eCurrent hCurrent TotalCurrent
    Charge ]
}

Data {
      0.00000000000000E+00
      0.00000000000000E+00   0.00000000000000E+00   0.00000000000000E+00   0.00000000000000E+00  -2.58634214183628E-23
     -1.00983923559043E-28  -2.58635224022864E-23  -7.29223547846199E-13   0.00000000000000E+00   0.00000000000000E+00
      0.00000000000000E+00   0.00000000000000E+00   2.58635147548575E-23   7.64742889544777E-30   2.58635224022864E-23
      7.29223547846200E-13
      1.00000000000000E-04
     -1.00000000000000E-03  -1.00000000000000E-03   0.00000000000000E+00   0.00000000000000E+00  -7.78465883976033E-17
     -1.81884010090810E-16  -2.59730598488413E-16  -7.29850883764335E-13   0.00000000000000E+00   0.00000000000000E+00
      0.00000000000000E+00   0.00000000000000E+00   2.58492984172908E-16   1.23761431550520E-18   2.59730598488413E-16
      7.29850883764334E-13
      2.00000000000000E-04
     -2.00000000000000E-03  -2.00000000000000E-03   0.00000000000000E+00   0.00000000000000E+00  -1.52654695137653E-16
     -3.63723462875433E-16  -5.16378158013086E-16  -7.30478150413796E-13   0.00000000000000E+00   0.00000000000000E+00
      0.00000000000000E+00   0.00000000000000E+00   5.13949878325412E-16   2.42827968767442E-18   5.16378158013086E-16
      7.30478150413797E-13
      3.00000000000000E-04
     -3.00000000000000E-03  -3.00000000000000E-03   0.00000000000000E+00   0.00000000000000E+00  -2.24715310000359E-16
     -5.45576687841524E-16  -7.70291997841883E-16  -7.31105347615487E-13   0.00000000000000E+00   0.00000000000000E+00
      0.00000000000000E+00   0.00000000000000E+00   7.66718220573622E-16   3.57377726826080E-18   7.70291997841883E-16
      7.31105347615487E-13
      4.00000000000000E-04
     -4.00000000000000E-03  -4.00000000000000E-03   0.00000000000000E+00   0.00000000000000E+00  -2.94045897463677E-16
     -7.27501627429210E-16  -1.02154752489289E-15  -7.31732475188392E-13   0.00000000000000E+00   0.00000000000000E+00
      0.00000000000000E+00   0.00000000000000E+00   1.01687170422012E-15   4.67582067276619E-18   1.02154752489289E-15
      7.31732475188392E-13
      5.00000000000000E-04
     -5.00000000000000E-03  -5.00000000000000E-03   0.00000000000000E+00   0.00000000000000E+00  -3.60749875138186E-16
     -9.09555845883232E-16  -1.27030572102142E-15  -7.32359532949135E-13   0.00000000000000E+00   0.00000000000000E+00
      0.00000000000000E+00   0.00000000000000E+00   1.26456966252339E-15   5.73605849802494E-18   1.27030572102142E-15
      7.32359532949135E-13
      6.00000000000000E-04
     -6.00000000000000E-03  -6.00000000000000E-03   0.00000000000000E+00   0.00000000000000E+00  -4.24926990780771E-16
     -1.09179653756573E-15  -1.51672352834650E-15  -7.32986520712110E-13   0.00000000000000E+00   0.00000000000000E+00
      0.00000000000000E+00   0.00000000000000E+00   1.50996745155314E-15   6.75607679336269E-18   1.51672352834650E-15
      7.32986520712110E-13
      7.00000000000000E-04
     -7.00000000000000E-03  -7.00000000000000E-03   0.00000000000000E+00   0.00000000000000E+00  -4.86672980632077E-16
     -1.27428053456423E-15  -1.76095351519630E-15  -7.33613438289486E-13   0.00000000000000E+00   0.00000000000000E+00
      0.00000000000000E+00   0.00000000000000E+00   1.75321611376423E-15   7.73740143207412E-18   1.76095351519630E-15
      7.33613438289486E-13
      8.00000000000000E-04
     -8.00000000000000E-03  -8.00000000000000E-03   0.00000000000000E+00   0.00000000000000E+00  -5.46079936018814E-16
     -1.45706431362083E-15  -2.00314424963964E-15  -7.34240285491228E-13   0.00000000000000E+00   0.00000000000000E+00
      0.00000000000000E+00   0.00000000000000E+00   1.99446274923994E-15   8.68150039970229E-18   2.00314424963964E-15
      7.34240285491228E-13
      9.00000000000000E-04
     -9.00000000000000E-03  -9.00000000000000E-03   0.00000000000000E+00   0.00000000000000E+00  -6.03236644509907E-16
     -1.64020400236283E-15  -2.24344064687274E-15  -7.34867062125104E-13   0.00000000000000E+00   0.00000000000000E+00
      0.00000000000000E+00   0.00000000000000E+00   2.23385086088433E-15   9.58978598841240E-18   2.24344064687274E-15
      7.34867062125104E-13
      1.00000000000000E-03
     -1.00000000000000E-02  -1.00000000000000E-02   0.00000000000000E+00   0.00000000000000E+00  -6.58228390955921E-16
     -1.82375538483986E-15  -2.48198377579578E-15  -7.35493767996697E-13   0.00000000000000E+00   0.00000000000000E+00
      0.00000000000000E+00   0.00000000000000E+00   2.47152015888590E-15   1.04636169098769E-17   2.48198377579578E-15
      7.35493767996697E-13
      1.10000000000000E-03
     -1.10000000000000E-02  -1.10000000000000E-02   0.00000000000000E+00   0.00000000000000E+00  -7.11137398929390E-16
     -2.00777390636010E-15  -2.71891130528949E-15  -7.36120402909419E-13   0.00000000000000E+00   0.00000000000000E+00
      0.00000000000000E+00   0.00000000000000E+00   2.70760700496143E-15   1.13043003280567E-17   2.71891130528949E-15
      7.36120402909419E-13
      1.20000000000000E-03
     -1.20000000000000E-02  -1.20000000000000E-02   0.00000000000000E+00   0.00000000000000E+00  -7.62042429770511E-16
     -2.19231467762047E-15  -2.95435710739098E-15  -7.36746966664518E-13   0.00000000000000E+00   0.00000000000000E+00
      0.00000000000000E+00   0.00000000000000E+00   2.94224401357619E-15   1.21130938147924E-17   2.95435710739098E-15
      7.36746966664518E-13
      1.30000000000000E-03
     -1.30000000000000E-02  -1.30000000000000E-02   0.00000000000000E+00   0.00000000000000E+00  -8.11019432387833E-16
     -2.37743247812461E-15  -3.18845191051244E-15  -7.37373459061092E-13   0.00000000000000E+00   0.00000000000000E+00
      0.00000000000000E+00   0.00000000000000E+00   3.17556070328113E-15   1.28912072313171E-17   3.18845191051244E-15
      7.37373459061092E-13
      1.40000000000000E-03
     -1.40000000000000E-02  -1.40000000000000E-02   0.00000000000000E+00   0.00000000000000E+00  -8.58141727205159E-16
     -2.56318175888302E-15  -3.42132348608818E-15  -7.37999879896093E-13   0.00000000000000E+00   0.00000000000000E+00
      0.00000000000000E+00   0.00000000000000E+00   3.40768368154983E-15   1.36398045383488E-17   3.42132348608818E-15
      7.37999879896094E-13
      1.50000000000000E-03
     -1.50000000000000E-02  -1.50000000000000E-02   0.00000000000000E+00   0.00000000000000E+00  -9.03479449870339E-16
     -2.74961664438904E-15  -3.65309609425938E-15  -7.38626228964347E-13   0.00000000000000E+00   0.00000000000000E+00
      0.00000000000000E+00   0.00000000000000E+00   3.63873608872201E-15   1.43600055373712E-17   3.65309609425938E-15
      7.38626228964347E-13
      1.60000000000000E-03
     -1.60000000000000E-02  -1.60000000000000E-02   0.00000000000000E+00   0.00000000000000E+00  -9.47100529556720E-16
     -2.93679093386432E-15  -3.88389146342104E-15  -7.39252506058550E-13   0.00000000000000E+00   0.00000000000000E+00
      0.00000000000000E+00   0.00000000000000E+00   3.86883857587492E-15   1.50528875461156E-17   3.88389146342104E-15
      7.39252506058550E-13
      1.70000000000000E-03
     -1.70000000000000E-02  -1.70000000000000E-02   0.00000000000000E+00   0.00000000000000E+00  -9.89069663713170E-16
     -3.12475810176762E-15  -4.11382776548079E-15  -7.39878710969286E-13   0.00000000000000E+00   0.00000000000000E+00
      0.00000000000000E+00   0.00000000000000E+00   4.09810827847064E-15   1.57194870101482E-17   4.11382776548079E-15
      7.39878710969286E-13
      1.80000000000000E-03
     -1.80000000000000E-02  -1.80000000000000E-02   0.00000000000000E+00   0.00000000000000E+00  -1.02944998107470E-15
     -3.31357129756017E-15  -4.34302127863487E-15  -7.40504843485031E-13   0.00000000000000E+00   0.00000000000000E+00
      0.00000000000000E+00   0.00000000000000E+00   4.32666047758112E-15   1.63608010537490E-17   4.34302127863487E-15
      7.40504843485031E-13
      1.90000000000000E-03
     -1.90000000000000E-02  -1.90000000000000E-02   0.00000000000000E+00   0.00000000000000E+00  -1.06830121988900E-15
     -3.50328334472088E-15  -4.57158456460988E-15  -7.41130903392164E-13   0.00000000000000E+00   0.00000000000000E+00
      0.00000000000000E+00   0.00000000000000E+00   4.55460677563847E-15   1.69777889714135E-17   4.57158456460988E-15
      7.41130903392163E-13
      2.00000000000000E-03
     -2.00000000000000E-02  -2.00000000000000E-02   0.00000000000000E+00   0.00000000000000E+00  -1.10568167908419E-15
     -3.69394673900530E-15  -4.79962841808950E-15  -7.41756890474969E-13   0.00000000000000E+00   0.00000000000000E+00
      0.00000000000000E+00   0.00000000000000E+00   4.78205704442616E-15   1.75713736633340E-17   4.79962841808950E-15
      7.41756890474969E-13
      2.10000000000000E-03
     -2.10000000000000E-02  -2.10000000000000E-02   0.00000000000000E+00   0.00000000000000E+00  -1.14164700332052E-15
     -3.88561364594108E-15  -5.02726064926160E-15  -7.42382804515649E-13   0.00000000000000E+00   0.00000000000000E+00
      0.00000000000000E+00   0.00000000000000E+00   5.00911820624565E-15   1.81424430159496E-17   5.02726064926160E-15
      7.42382804515649E-13
      2.20000000000000E-03
     -2.20000000000000E-02  -2.20000000000000E-02   0.00000000000000E+00   0.00000000000000E+00  -1.17625073158223E-15
     -4.07833589755393E-15  -5.25458662913615E-15  -7.43008645294328E-13   0.00000000000000E+00   0.00000000000000E+00
      0.00000000000000E+00   0.00000000000000E+00   5.23589477790575E-15   1.86918512304086E-17   5.25458662913615E-15
      7.43008645294328E-13
      2.30000000000000E-03
     -2.30000000000000E-02  -2.30000000000000E-02   0.00000000000000E+00   0.00000000000000E+00  -1.20954475949637E-15
     -4.27216498831719E-15  -5.48170974781356E-15  -7.43634412589059E-13   0.00000000000000E+00   0.00000000000000E+00
      0.00000000000000E+00   0.00000000000000E+00   5.46248932771300E-15   1.92204201005575E-17   5.48170974781356E-15
      7.43634412589059E-13
      2.40000000000000E-03
     -2.40000000000000E-02  -2.40000000000000E-02   0.00000000000000E+00   0.00000000000000E+00  -1.24157868580970E-15
     -4.46715207031917E-15  -5.70873075612887E-15  -7.44260106175827E-13   0.00000000000000E+00   0.00000000000000E+00
      0.00000000000000E+00   0.00000000000000E+00   5.68900181588650E-15   1.97289402423626E-17   5.70873075612887E-15
      7.44260106175827E-13
      2.50000000000000E-03
     -2.50000000000000E-02  -2.50000000000000E-02   0.00000000000000E+00   0.00000000000000E+00  -1.27240014255316E-15
     -4.66334794764152E-15  -5.93574809019467E-15  -7.44885725828561E-13   0.00000000000000E+00   0.00000000000000E+00
      0.00000000000000E+00   0.00000000000000E+00   5.91552991791790E-15   2.02181722767701E-17   5.93574809019467E-15
      7.44885725828560E-13
      2.60000000000000E-03
     -2.60000000000000E-02  -2.60000000000000E-02   0.00000000000000E+00   0.00000000000000E+00  -1.30205523269443E-15
     -4.86080306994328E-15  -6.16285830263772E-15  -7.45511271319131E-13   0.00000000000000E+00   0.00000000000000E+00
      0.00000000000000E+00   0.00000000000000E+00   6.14216945466998E-15   2.06888479677326E-17   6.16285830263771E-15
      7.45511271319131E-13
      2.70000000000000E-03
     -2.70000000000000E-02  -2.70000000000000E-02   0.00000000000000E+00   0.00000000000000E+00  -1.33058814666369E-15
     -5.05956752524463E-15  -6.39015567190832E-15  -7.46136742417362E-13   0.00000000000000E+00   0.00000000000000E+00
      0.00000000000000E+00   0.00000000000000E+00   6.36901400059138E-15   2.11416713169364E-17   6.39015567190832E-15
      7.46136742417361E-13
      2.80000000000000E-03
     -2.80000000000000E-02  -2.80000000000000E-02   0.00000000000000E+00   0.00000000000000E+00  -1.35804141570210E-15
     -5.25969103190504E-15  -6.61773244760714E-15  -7.46762138891029E-13   0.00000000000000E+00   0.00000000000000E+00
      0.00000000000000E+00   0.00000000000000E+00   6.59615512799004E-15   2.15773196170953E-17   6.61773244760714E-15
      7.46762138891029E-13
      2.90000000000000E-03
     -2.90000000000000E-02  -2.90000000000000E-02   0.00000000000000E+00   0.00000000000000E+00  -1.38445583200655E-15
     -5.46122292979104E-15  -6.84567876179759E-15  -7.47387460505869E-13   0.00000000000000E+00   0.00000000000000E+00
      0.00000000000000E+00   0.00000000000000E+00   6.82368231733236E-15   2.19964444652287E-17   6.84567876179759E-15
      7.47387460505869E-13
      3.00000000000000E-03
     -3.00000000000000E-02  -3.00000000000000E-02   0.00000000000000E+00   0.00000000000000E+00  -1.40987113257866E-15
     -5.66421217062883E-15  -7.07408330320750E-15  -7.48012707025583E-13   0.00000000000000E+00   0.00000000000000E+00
      0.00000000000000E+00   0.00000000000000E+00   7.05168363046989E-15   2.23996727376026E-17   7.07408330320749E-15
      7.48012707025583E-13
      3.10000000000000E-03
     -3.10000000000000E-02  -3.10000000000000E-02   0.00000000000000E+00   0.00000000000000E+00  -1.43432493276304E-15
     -5.86870730753785E-15  -7.30303224030089E-15  -7.48637878211833E-13   0.00000000000000E+00   0.00000000000000E+00
      0.00000000000000E+00   0.00000000000000E+00   7.28024463277343E-15   2.27876075274591E-17   7.30303224030089E-15
      7.48637878211833E-13
      3.20000000000000E-03
     -3.20000000000000E-02  -3.20000000000000E-02   0.00000000000000E+00   0.00000000000000E+00  -1.45785373773586E-15
     -6.07475648374166E-15  -7.53261022147752E-15  -7.49262973824257E-13   0.00000000000000E+00   0.00000000000000E+00
      0.00000000000000E+00   0.00000000000000E+00   7.50944939243009E-15   2.31608290474361E-17   7.53261022147752E-15
      7.49262973824257E-13
      3.30000000000000E-03
     -3.30000000000000E-02  -3.30000000000000E-02   0.00000000000000E+00   0.00000000000000E+00  -1.48049266434320E-15
     -6.28240742045325E-15  -7.76290008479645E-15  -7.49887993620461E-13   0.00000000000000E+00   0.00000000000000E+00
      0.00000000000000E+00   0.00000000000000E+00   7.73938018929887E-15   2.35198954975748E-17   7.76290008479645E-15
      7.49887993620461E-13
      3.40000000000000E-03
     -3.40000000000000E-02  -3.40000000000000E-02   0.00000000000000E+00   0.00000000000000E+00  -1.50227542082973E-15
     -6.49170740393253E-15  -7.99398282476226E-15  -7.50512937356029E-13   0.00000000000000E+00   0.00000000000000E+00
      0.00000000000000E+00   0.00000000000000E+00   7.97011748086180E-15   2.38653439004537E-17   7.99398282476226E-15
      7.50512937356029E-13
      3.50000000000000E-03
     -3.50000000000000E-02  -3.50000000000000E-02   0.00000000000000E+00   0.00000000000000E+00  -1.52323447908828E-15
     -6.70270327171409E-15  -8.22593775080237E-15  -7.51137804784519E-13   0.00000000000000E+00   0.00000000000000E+00
      0.00000000000000E+00   0.00000000000000E+00   8.20174005989774E-15   2.41976909046341E-17   8.22593775080237E-15
      7.51137804784519E-13
      3.60000000000000E-03
     -3.60000000000000E-02  -3.60000000000000E-02   0.00000000000000E+00   0.00000000000000E+00  -1.54340107340942E-15
     -6.91544139800485E-15  -8.45884247141427E-15  -7.51762595657471E-13   0.00000000000000E+00   0.00000000000000E+00
      0.00000000000000E+00   0.00000000000000E+00   8.43432503785665E-15   2.45174335576273E-17   8.45884247141427E-15
      7.51762595657471E-13
      3.70000000000000E-03
     -3.70000000000000E-02  -3.70000000000000E-02   0.00000000000000E+00   0.00000000000000E+00  -1.56280523254500E-15
     -7.12996767825127E-15  -8.69277291079627E-15  -7.52387309724406E-13   0.00000000000000E+00   0.00000000000000E+00
      0.00000000000000E+00   0.00000000000000E+00   8.66794786074675E-15   2.48250500495272E-17   8.69277291079627E-15
      7.52387309724406E-13
      3.80000000000000E-03
     -3.80000000000000E-02  -3.80000000000000E-02   0.00000000000000E+00   0.00000000000000E+00  -1.58147595186035E-15
     -7.34632751287698E-15  -8.92780346473733E-15  -7.53011946732825E-13   0.00000000000000E+00   0.00000000000000E+00
      0.00000000000000E+00   0.00000000000000E+00   8.90268246430888E-15   2.51210004284517E-17   8.92780346473733E-15
      7.53011946732825E-13
      3.90000000000000E-03
     -3.90000000000000E-02  -3.90000000000000E-02   0.00000000000000E+00   0.00000000000000E+00  -1.59944085018293E-15
     -7.56456579019297E-15  -9.16400664037590E-15  -7.53636506428216E-13   0.00000000000000E+00   0.00000000000000E+00
      0.00000000000000E+00   0.00000000000000E+00   9.13860091308711E-15   2.54057272887841E-17   9.16400664037590E-15
      7.53636506428216E-13
      4.00000000000000E-03
     -4.00000000000000E-02  -4.00000000000000E-02   0.00000000000000E+00   0.00000000000000E+00  -1.61672687595748E-15
     -7.78472686848262E-15  -9.40145374444011E-15  -7.54260988554046E-13   0.00000000000000E+00   0.00000000000000E+00
      0.00000000000000E+00   0.00000000000000E+00   9.37577408800670E-15   2.56796564334120E-17   9.40145374444011E-15
      7.54260988554046E-13
      4.10000000000000E-03
     -4.10000000000000E-02  -4.10000000000000E-02   0.00000000000000E+00   0.00000000000000E+00  -1.63335977720076E-15
     -8.00685455726625E-15  -9.64021433446701E-15  -7.54885392851771E-13   0.00000000000000E+00   0.00000000000000E+00
      0.00000000000000E+00   0.00000000000000E+00   9.61427113695629E-15   2.59431975107204E-17   9.64021433446701E-15
      7.54885392851771E-13
      4.20000000000000E-03
     -4.20000000000000E-02  -4.20000000000000E-02   0.00000000000000E+00   0.00000000000000E+00  -1.64936412281050E-15
     -8.23099209774955E-15  -9.88035622056005E-15  -7.55509719060831E-13   0.00000000000000E+00   0.00000000000000E+00
      0.00000000000000E+00   0.00000000000000E+00   9.85415947593258E-15   2.61967446274746E-17   9.88035622056005E-15
      7.55509719060830E-13
      4.30000000000000E-03
     -4.30000000000000E-02  -4.30000000000000E-02   0.00000000000000E+00   0.00000000000000E+00  -1.66476396538171E-15
     -8.45718214246258E-15  -1.01219461078443E-14  -7.56133966918647E-13   0.00000000000000E+00   0.00000000000000E+00
      0.00000000000000E+00   0.00000000000000E+00   1.00955054309058E-14   2.64406769385019E-17   1.01219461078443E-14
      7.56133966918646E-13
      4.40000000000000E-03
     -4.40000000000000E-02  -4.40000000000000E-02   0.00000000000000E+00   0.00000000000000E+00  -1.67958210778468E-15
     -8.68546673409696E-15  -1.03650488418816E-14  -7.56758136160628E-13   0.00000000000000E+00   0.00000000000000E+00
      0.00000000000000E+00   0.00000000000000E+00   1.03383734826678E-14   2.66753592138797E-17   1.03650488418816E-14
      7.56758136160628E-13
      4.50000000000000E-03
     -4.50000000000000E-02  -4.50000000000000E-02   0.00000000000000E+00   0.00000000000000E+00  -1.69384062266481E-15
     -8.91588728354974E-15  -1.06097279062146E-14  -7.57382226520167E-13   0.00000000000000E+00   0.00000000000000E+00
      0.00000000000000E+00   0.00000000000000E+00   1.05828267638298E-14   2.69011423847246E-17   1.06097279062146E-14
      7.57382226520167E-13
      4.60000000000000E-03
     -4.60000000000000E-02  -4.60000000000000E-02   0.00000000000000E+00   0.00000000000000E+00  -1.70756069916100E-15
     -9.14848454718507E-15  -1.08560452463461E-14  -7.58006237728636E-13   0.00000000000000E+00   0.00000000000000E+00
      0.00000000000000E+00   0.00000000000000E+00   1.08289268822779E-14   2.71183640682054E-17   1.08560452463461E-14
      7.58006237728636E-13
      4.70000000000000E-03
     -4.70000000000000E-02  -4.70000000000000E-02   0.00000000000000E+00   0.00000000000000E+00  -1.72076286080330E-15
     -9.38329860332452E-15  -1.11040614641278E-14  -7.58630169515392E-13   0.00000000000000E+00   0.00000000000000E+00
      0.00000000000000E+00   0.00000000000000E+00   1.10767341150551E-14   2.73273490726710E-17   1.11040614641278E-14
      7.58630169515392E-13
      4.80000000000000E-03
     -4.80000000000000E-02  -4.80000000000000E-02   0.00000000000000E+00   0.00000000000000E+00  -1.73346667012093E-15
     -9.62036882798044E-15  -1.13538354981014E-14  -7.59254021607769E-13   0.00000000000000E+00   0.00000000000000E+00
      0.00000000000000E+00   0.00000000000000E+00   1.13263070882178E-14   2.75284098835776E-17   1.13538354981014E-14
      7.59254021607769E-13
      4.90000000000000E-03
     -4.90000000000000E-02  -4.90000000000000E-02   0.00000000000000E+00   0.00000000000000E+00  -1.74569100714753E-15
     -9.85973386984646E-15  -1.16054248769940E-14  -7.59877793731082E-13   0.00000000000000E+00   0.00000000000000E+00
      0.00000000000000E+00   0.00000000000000E+00   1.15777030298630E-14   2.77218471310227E-17   1.16054248769940E-14
      7.59877793731081E-13
      5.00000000000000E-03
     -5.00000000000000E-02  -5.00000000000000E-02   0.00000000000000E+00   0.00000000000000E+00  -1.75745405621397E-15
     -1.01014316245627E-14  -1.18588856807766E-14  -7.60501485608619E-13   0.00000000000000E+00   0.00000000000000E+00
      0.00000000000000E+00   0.00000000000000E+00   1.18309777307371E-14   2.79079500395262E-17   1.18588856807766E-14
      7.60501485608619E-13
      5.10000000000000E-03
     -5.10000000000000E-02  -5.10000000000000E-02   0.00000000000000E+00   0.00000000000000E+00  -1.76877336061035E-15
     -1.03454992082730E-14  -1.21142725688833E-14  -7.61125096961643E-13   0.00000000000000E+00   0.00000000000000E+00
      0.00000000000000E+00   0.00000000000000E+00   1.20861855720226E-14   2.80869968607331E-17   1.21142725688833E-14
      7.61125096961643E-13
      5.20000000000000E-03
     -5.20000000000000E-02  -5.20000000000000E-02   0.00000000000000E+00   0.00000000000000E+00  -1.77966567174676E-15
     -1.05919729304959E-14  -1.23716386022427E-14  -7.61748627509391E-13   0.00000000000000E+00   0.00000000000000E+00
      0.00000000000000E+00   0.00000000000000E+00   1.23433793469530E-14   2.82592552897114E-17   1.23716386022427E-14
      7.61748627509391E-13
      5.30000000000000E-03
     -5.30000000000000E-02  -5.30000000000000E-02   0.00000000000000E+00   0.00000000000000E+00  -1.79014726146310E-15
     -1.08408882663301E-14  -1.26310355277932E-14  -7.62372076969066E-13   0.00000000000000E+00   0.00000000000000E+00
      0.00000000000000E+00   0.00000000000000E+00   1.26026105449277E-14   2.84249828654707E-17   1.26310355277932E-14
      7.62372076969065E-13
      5.40000000000000E-03
     -5.40000000000000E-02  -5.40000000000000E-02   0.00000000000000E+00   0.00000000000000E+00  -1.80023364716425E-15
     -1.10922798280187E-14  -1.28925134751830E-14  -7.62995445055835E-13   0.00000000000000E+00   0.00000000000000E+00
      0.00000000000000E+00   0.00000000000000E+00   1.28639290478267E-14   2.85844273562483E-17   1.28925134751830E-14
      7.62995445055835E-13
      5.50000000000000E-03
     -5.50000000000000E-02  -5.50000000000000E-02   0.00000000000000E+00   0.00000000000000E+00  -1.80993981292028E-15
     -1.13461813358994E-14  -1.31561211488197E-14  -7.63618731482830E-13   0.00000000000000E+00   0.00000000000000E+00
      0.00000000000000E+00   0.00000000000000E+00   1.31273833216895E-14   2.87378271302212E-17   1.31561211488197E-14
      7.63618731482831E-13
      5.60000000000000E-03
     -5.60000000000000E-02  -5.60000000000000E-02   0.00000000000000E+00   0.00000000000000E+00  -1.81928022404605E-15
     -1.16026255887669E-14  -1.34219058128129E-14  -7.64241935961143E-13   0.00000000000000E+00   0.00000000000000E+00
      0.00000000000000E+00   0.00000000000000E+00   1.33930204013008E-14   2.88854115121246E-17   1.34219058128129E-14
      7.64241935961142E-13
      5.70000000000000E-03
     -5.70000000000000E-02  -5.70000000000000E-02   0.00000000000000E+00   0.00000000000000E+00  -1.82826871249059E-15
     -1.18616444336787E-14  -1.36899131461693E-14  -7.64865058199814E-13   0.00000000000000E+00   0.00000000000000E+00
      0.00000000000000E+00   0.00000000000000E+00   1.36608857450429E-14   2.90274011263473E-17   1.36899131461693E-14
      7.64865058199814E-13
      5.80000000000000E-03
     -5.80000000000000E-02  -5.80000000000000E-02   0.00000000000000E+00   0.00000000000000E+00  -1.83691860343070E-15
     -1.21232687352369E-14  -1.39601873386676E-14  -7.65488097905843E-13   0.00000000000000E+00   0.00000000000000E+00
      0.00000000000000E+00   0.00000000000000E+00   1.39310233304406E-14   2.91640082270173E-17   1.39601873386676E-14
      7.65488097905843E-13
      5.90000000000000E-03
     -5.90000000000000E-02  -5.90000000000000E-02   0.00000000000000E+00   0.00000000000000E+00  -1.84524275292148E-15
     -1.23875283443788E-14  -1.42327710973003E-14  -7.66111054784169E-13   0.00000000000000E+00   0.00000000000000E+00
      0.00000000000000E+00   0.00000000000000E+00   1.42034756602848E-14   2.92954370155591E-17   1.42327710973003E-14
      7.66111054784169E-13
      6.00000000000000E-03
     -6.00000000000000E-02  -6.00000000000000E-02   0.00000000000000E+00   0.00000000000000E+00  -1.85325356504012E-15
     -1.26544520667148E-14  -1.45077056317549E-14  -7.66733928537679E-13   0.00000000000000E+00   0.00000000000000E+00
      0.00000000000000E+00   0.00000000000000E+00   1.44782837478087E-14   2.94218839462069E-17   1.45077056317549E-14
      7.66733928537678E-13
      6.10000000000000E-03
     -6.10000000000000E-02  -6.10000000000000E-02   0.00000000000000E+00   0.00000000000000E+00  -1.86096284139197E-15
     -1.29240676304506E-14  -1.47850304718426E-14  -7.67356718867191E-13   0.00000000000000E+00   0.00000000000000E+00
      0.00000000000000E+00   0.00000000000000E+00   1.47554869338227E-14   2.95435380199139E-17   1.47850304718426E-14
      7.67356718867191E-13
      6.20000000000000E-03
     -6.20000000000000E-02  -6.20000000000000E-02   0.00000000000000E+00   0.00000000000000E+00  -1.86838204350438E-15
     -1.31964016539365E-14  -1.50647836974409E-14  -7.67979425471463E-13   0.00000000000000E+00   0.00000000000000E+00
      0.00000000000000E+00   0.00000000000000E+00   1.50351231163738E-14   2.96605810671331E-17   1.50647836974409E-14
      7.67979425471462E-13
      6.30000000000000E-03
     -6.30000000000000E-02  -6.30000000000000E-02   0.00000000000000E+00   0.00000000000000E+00  -1.87552223620226E-15
     -1.34714796128855E-14  -1.53470018490878E-14  -7.68602048047172E-13   0.00000000000000E+00   0.00000000000000E+00
      0.00000000000000E+00   0.00000000000000E+00   1.53172286610680E-14   2.97731880198585E-17   1.53470018490878E-14
      7.68602048047172E-13
      6.40000000000000E-03
     -6.40000000000000E-02  -6.40000000000000E-02   0.00000000000000E+00   0.00000000000000E+00  -1.88239386309382E-15
     -1.37493258073072E-14  -1.56317196704010E-14  -7.69224586288924E-13   0.00000000000000E+00   0.00000000000000E+00
      0.00000000000000E+00   0.00000000000000E+00   1.56018381432277E-14   2.98815271733251E-17   1.56317196704010E-14
      7.69224586288924E-13
      6.50000000000000E-03
     -6.50000000000000E-02  -6.50000000000000E-02   0.00000000000000E+00   0.00000000000000E+00  -1.88900727100208E-15
     -1.40299633282041E-14  -1.59189705992062E-14  -7.69847039889235E-13   0.00000000000000E+00   0.00000000000000E+00
      0.00000000000000E+00   0.00000000000000E+00   1.58889848387683E-14   2.99857604378351E-17   1.59189705992062E-14
      7.69847039889235E-13
      6.60000000000000E-03
     -6.60000000000000E-02  -6.60000000000000E-02   0.00000000000000E+00   0.00000000000000E+00  -1.89537208302699E-15
     -1.43134140240813E-14  -1.62087861071083E-14  -7.70469408538536E-13   0.00000000000000E+00   0.00000000000000E+00
      0.00000000000000E+00   0.00000000000000E+00   1.61787000635274E-14   3.00860435809553E-17   1.62087861071083E-14
      7.70469408538536E-13
      6.70000000000000E-03
     -6.70000000000000E-02  -6.70000000000000E-02   0.00000000000000E+00   0.00000000000000E+00  -1.90149783627300E-15
     -1.45996984673224E-14  -1.65011963035954E-14  -7.71091691925159E-13   0.00000000000000E+00   0.00000000000000E+00
      0.00000000000000E+00   0.00000000000000E+00   1.64710137771348E-14   3.01825264606029E-17   1.65011963035954E-14
      7.71091691925159E-13
      6.80000000000000E-03
     -6.80000000000000E-02  -6.80000000000000E-02   0.00000000000000E+00   0.00000000000000E+00  -1.90739362483270E-15
     -1.48888359204849E-14  -1.67962295453176E-14  -7.71713889735335E-13   0.00000000000000E+00   0.00000000000000E+00
      0.00000000000000E+00   0.00000000000000E+00   1.67659541920683E-14   3.02753532492287E-17   1.67962295453176E-14
      7.71713889735335E-13
      6.90000000000001E-03
     -6.90000000000000E-02  -6.90000000000000E-02   0.00000000000000E+00   0.00000000000000E+00  -1.91306805990571E-15
     -1.51808443025731E-14  -1.70939123624788E-14  -7.72336001653184E-13   0.00000000000000E+00   0.00000000000000E+00
      0.00000000000000E+00   0.00000000000000E+00   1.70635476998293E-14   3.03646626495162E-17   1.70939123624788E-14
      7.72336001653184E-13
      7.00000000000001E-03
     -7.00000000000000E-02  -7.00000000000000E-02   0.00000000000000E+00   0.00000000000000E+00  -1.91852952920791E-15
     -1.54757401553480E-14  -1.73942696845559E-14  -7.72958027360712E-13   0.00000000000000E+00   0.00000000000000E+00
      0.00000000000000E+00   0.00000000000000E+00   1.73638190964540E-14   3.04505881019123E-17   1.73942696845559E-14
      7.72958027360712E-13