DF-ISE text

Info {
  version   = 1.0
  type      = xyplot
  datasets  = [
    "time"
    "gate OuterVoltage" "gate InnerVoltage" "gate QuasiFermiPotential" "gate DisplacementCurrent" "gate eCurrent"
    "gate hCurrent" "gate TotalCurrent" "gate Charge" "substrate OuterVoltage" "substrate InnerVoltage"
    "substrate QuasiFermiPotential" "substrate DisplacementCurrent" "substrate eCurrent" "substrate hCurrent" "substrate TotalCurrent"
    "substrate Charge" "substrate Temperature" "substrate lHeatFlux" "substrate eHeatFlux" "substrate hHeatFlux"
    "drain OuterVoltage" "drain InnerVoltage" "drain QuasiFermiPotential" "drain DisplacementCurrent" "drain eCurrent"
    "drain hCurrent" "drain TotalCurrent" "drain Charge" "source OuterVoltage" "source InnerVoltage"
    "source QuasiFermiPotential" "source DisplacementCurrent" "source eCurrent" "source hCurrent" "source TotalCurrent"
    "source Charge" "lTmin" "lTave" "lTmax" "eTmin"
    "eTave" "eTmax" "hTmin" "hTave" "hTmax" ]
  functions = [
    Time
    OuterVoltage InnerVoltage QuasiFermiPotential DisplacementCurrent eCurrent
    hCurrent TotalCurrent Charge OuterVoltage InnerVoltage
    QuasiFermiPotential DisplacementCurrent eCurrent hCurrent TotalCurrent
    Charge Temperature lHeatFlux eHeatFlux hHeatFlux
    OuterVoltage InnerVoltage QuasiFermiPotential DisplacementCurrent eCurrent
    hCurrent TotalCurrent Charge OuterVoltage InnerVoltage
    QuasiFermiPotential DisplacementCurrent eCurrent hCurrent TotalCurrent
    Charge MinTemperature AveTemperature MaxTemperature MinTemperature
    AveTemperature MaxTemperature MinTemperature AveTemperature MaxTemperature ]
}

Data {
      0.00000000000000E+00
      8.00000000000000E-01   8.00000000000000E-01   0.00000000000000E+00   0.00000000000000E+00   0.00000000000000E+00
      0.00000000000000E+00   0.00000000000000E+00   9.86895365481008E-16   0.00000000000000E+00   0.00000000000000E+00
      0.00000000000000E+00   0.00000000000000E+00  -1.41656181486487E-19   1.10803825640013E-26  -1.41656170406105E-19
     -4.50321467158583E-15   3.00000000000000E+02   0.00000000000000E+00  -1.43650195903819E-34   0.00000000000000E+00
      0.00000000000000E+00   7.25573423939461E-16   0.00000000000000E+00   0.00000000000000E+00  -1.76860309721582E-19
     -6.33827304605029E-27  -1.76860316059855E-19   1.75815965305240E-15   0.00000000000000E+00   7.25573423939461E-16
      0.00000000000000E+00   0.00000000000000E+00   3.18516491213064E-19  -4.74710442617130E-27   3.18516486465959E-19
      1.75815965305239E-15   3.00000000000000E+02   2.99999999999994E+02   3.00000000000000E+02   3.00000000000000E+02
      2.99999999999994E+02   3.00000000000001E+02   3.00000000000000E+02   2.99999999999994E+02   3.00000000000000E+02
      5.00000000000000E-02
      8.00000000000000E-01   8.00000000000000E-01   0.00000000000000E+00   0.00000000000000E+00   0.00000000000000E+00
      0.00000000000000E+00   0.00000000000000E+00   9.56840390500314E-16   0.00000000000000E+00   0.00000000000000E+00
      0.00000000000000E+00   0.00000000000000E+00   3.48066071638557E-17  -2.45601128494990E-16  -2.10794521331134E-16
     -4.56919839967544E-15   3.00000000000000E+02  -3.42496490209287E-06   2.59850289945195E-21   0.00000000000000E+00
      5.00000000000000E-02   4.68440035079619E-02   0.00000000000000E+00   0.00000000000000E+00   7.88999123009551E-05
      8.71473922853319E-20   7.88999123009551E-05   1.84273323519548E-15   0.00000000000000E+00   3.15599649202760E-03
      0.00000000000000E+00   0.00000000000000E+00  -7.88999123007447E-05   1.23232639027552E-20  -7.88999123007447E-05
      1.76962477397966E-15   3.00000000000000E+02   3.00011436013009E+02   3.00040248394685E+02   2.90193845050114E+02
      3.00059435553961E+02   3.27204748245617E+02   3.00000000000000E+02   3.00010785448707E+02   3.00040248394685E+02
      1.00000000000000E-01
      8.00000000000000E-01   8.00000000000000E-01   0.00000000000000E+00   0.00000000000000E+00   0.00000000000000E+00
      0.00000000000000E+00   0.00000000000000E+00   9.26778704824239E-16   0.00000000000000E+00   0.00000000000000E+00
      0.00000000000000E+00   0.00000000000000E+00   3.72258521513570E-13  -4.13678273258635E-16   3.71844843240312E-13
     -4.63361536591325E-15   3.00000000000000E+02  -1.32215023196490E-05   3.23625635382679E-21   0.00000000000000E+00
      1.00000000000000E-01   9.39457972241563E-02   0.00000000000000E+00   0.00000000000000E+00   1.51355069122008E-04
      9.97824627281075E-20   1.51355069122008E-04   1.92668379355568E-15   0.00000000000000E+00   6.05420277582717E-03
      0.00000000000000E+00   0.00000000000000E+00  -1.51355069493853E-04   2.24502520612850E-20  -1.51355069493853E-04
      1.78015286753333E-15   3.00000000000000E+02   3.00044157043096E+02   3.00140581692177E+02   2.82735870088081E+02
      3.00180638639470E+02   3.74263962337002E+02   3.00000000000000E+02   3.00041641026657E+02   3.00140581692177E+02
      1.50000000000000E-01
      8.00000000000000E-01   8.00000000000000E-01   0.00000000000000E+00   0.00000000000000E+00   0.00000000000000E+00
      0.00000000000000E+00   0.00000000000000E+00   8.97146754396585E-16   0.00000000000000E+00   0.00000000000000E+00
      0.00000000000000E+00   0.00000000000000E+00  -3.17737763901195E-16  -5.38878460323707E-16  -8.56616224224902E-16
     -4.69682643355973E-15   3.00000000000000E+02  -2.84962684788679E-05   3.48350175180901E-21   0.00000000000000E+00
      1.50000000000000E-01   1.41361742445477E-01   0.00000000000000E+00   0.00000000000000E+00   2.15956438863376E-04
      1.02321668882357E-19   2.15956438863376E-04   2.01016413714088E-15   0.00000000000000E+00   8.63825755450130E-03
      0.00000000000000E+00   0.00000000000000E+00  -2.15956438862520E-04   3.07762644542114E-20  -2.15956438862520E-04
      1.78951554202224E-15   3.00000000000000E+02   3.00095197598444E+02   3.00291426338293E+02   2.66932011529852E+02
      3.00375162850146E+02   4.53575746627755E+02   3.00000000000000E+02   3.00089764712974E+02   3.00291426338293E+02
      2.00000000000000E-01
      8.00000000000000E-01   8.00000000000000E-01   0.00000000000000E+00   0.00000000000000E+00   0.00000000000000E+00
      0.00000000000000E+00   0.00000000000000E+00   8.68242822082786E-16   0.00000000000000E+00   0.00000000000000E+00
      0.00000000000000E+00   0.00000000000000E+00   4.62317904488148E-17  -6.25282570678182E-16  -5.79050780229367E-16
     -4.75912371500442E-15   3.00000000000000E+02  -4.82533402908552E-05   3.31826409277855E-21   0.00000000000000E+00
      2.00000000000000E-01   1.89110444163249E-01   0.00000000000000E+00   0.00000000000000E+00   2.72238895918760E-04
      1.04322632818506E-19   2.72238895918761E-04   2.09324939007117E-15   0.00000000000000E+00   1.08895558367264E-02
      0.00000000000000E+00   0.00000000000000E+00  -2.72238895918182E-04   3.76812187270796E-20  -2.72238895918182E-04
      1.79763150285048E-15   3.00000000000000E+02   3.00161245647155E+02   3.00482197089909E+02   2.77651366863538E+02
      3.01015258180576E+02   7.76876429568659E+02   3.00000000000000E+02   3.00152031278574E+02   3.00482197089909E+02
      2.50000000000000E-01
      8.00000000000000E-01   8.00000000000000E-01   0.00000000000000E+00   0.00000000000000E+00   0.00000000000000E+00
      0.00000000000000E+00   0.00000000000000E+00   8.40211861960785E-16   0.00000000000000E+00   0.00000000000000E+00
      0.00000000000000E+00   0.00000000000000E+00   6.93321696745247E-18  -6.62523536426737E-16  -6.55590319459285E-16
     -4.82075566602778E-15   3.00000000000000E+02  -7.15420014102584E-05  -1.31747772634512E-20   0.00000000000000E+00
      2.50000000000000E-01   2.37179167136209E-01   0.00000000000000E+00   0.00000000000000E+00   3.20520821594778E-04
      1.06653876853641E-19   3.20520821594778E-04   2.17601328421406E-15   0.00000000000000E+00   1.28208328637648E-02
      0.00000000000000E+00   0.00000000000000E+00  -3.20520821594124E-04   4.35028366138251E-20  -3.20520821594124E-04
      1.80453051985296E-15   3.00000000000000E+02   3.00239136835453E+02   3.00712740717337E+02   2.94579580579055E+02
      3.03869049716653E+02   1.15343006802534E+03   3.00000000000000E+02   3.00225456597357E+02   3.00712740717337E+02
      3.00000000000000E-01
      8.00000000000000E-01   8.00000000000000E-01   0.00000000000000E+00   0.00000000000000E+00   0.00000000000000E+00
      0.00000000000000E+00   0.00000000000000E+00   8.13280759300973E-16   0.00000000000000E+00   0.00000000000000E+00
      0.00000000000000E+00   0.00000000000000E+00   1.25468433352276E-17  -6.19910898251991E-16  -6.07364054916763E-16
     -4.88198028109244E-15   3.00000000000000E+02  -9.74522296962561E-05  -5.92285336949101E-19   0.00000000000000E+00
      3.00000000000000E-01   2.85551822250192E-01   0.00000000000000E+00   0.00000000000000E+00   3.61204443745222E-04
      1.09253754554272E-19   3.61204443745222E-04   2.25843244974630E-15   0.00000000000000E+00   1.44481777497841E-02
      0.00000000000000E+00   0.00000000000000E+00  -3.61204443744615E-04   4.84743589133746E-20  -3.61204443744615E-04
      1.81026707204517E-15   3.00000000000000E+02   3.00325836314789E+02   3.00985489866009E+02   2.96424185639749E+02
      3.10061816945319E+02   1.60434305055197E+03   3.00000000000000E+02   3.00307181186268E+02   3.00985489866009E+02
      3.50000000000000E-01
      8.00000000000000E-01   8.00000000000000E-01   0.00000000000000E+00   0.00000000000000E+00   0.00000000000000E+00
      0.00000000000000E+00   0.00000000000000E+00   7.87589587409342E-16   0.00000000000000E+00   0.00000000000000E+00
      0.00000000000000E+00   0.00000000000000E+00   2.79517224270033E-16  -2.69607660461678E-16   9.90956380835507E-18
     -4.94298500597782E-15   3.00000000000000E+02  -1.25223828191195E-04  -1.10026288480516E-17   0.00000000000000E+00
      3.50000000000000E-01   3.34196790934867E-01   0.00000000000000E+00   0.00000000000000E+00   3.95080226628322E-04
      1.12072518259105E-19   3.95080226628322E-04   2.34043519809245E-15   0.00000000000000E+00   1.58032090651333E-02
      0.00000000000000E+00   0.00000000000000E+00  -3.95080226628332E-04   5.27885898797264E-20  -3.95080226628332E-04
      1.81496022047599E-15   3.00000000000000E+02   3.00418805347929E+02   3.01283092268160E+02   2.96738781373298E+02
      3.15899562440564E+02   2.03738246732997E+03   3.00000000000000E+02   3.00394814394139E+02   3.01283092268160E+02
      4.00000000000000E-01
      8.00000000000000E-01   8.00000000000000E-01   0.00000000000000E+00   0.00000000000000E+00   0.00000000000000E+00
      0.00000000000000E+00   0.00000000000000E+00   7.63201826610751E-16   0.00000000000000E+00   0.00000000000000E+00
      0.00000000000000E+00   0.00000000000000E+00   2.94253989013342E-15   5.41803149006189E-16   3.48434303913961E-15
     -5.00387635572775E-15   3.00000000000000E+02  -1.54280150828384E-04  -1.13606291823659E-16   0.00000000000000E+00
      4.00000000000000E-01   3.83074142297340E-01   0.00000000000000E+00   0.00000000000000E+00   4.23146442566469E-04
      1.15070679097598E-19   4.23146442566469E-04   2.42191353373873E-15   0.00000000000000E+00   1.69258577027985E-02
      0.00000000000000E+00   0.00000000000000E+00  -4.23146442569954E-04   5.66058257082706E-20  -4.23146442569954E-04
      1.81876099537824E-15   3.00000000000000E+02   3.00516115912730E+02   3.01598373056937E+02   2.97115313097888E+02
      3.21435079021418E+02   2.33351785776475E+03   3.00000000000000E+02   3.00486541528215E+02   3.01598373056937E+02
      4.50000000000000E-01
      8.00000000000000E-01   8.00000000000000E-01   0.00000000000000E+00   0.00000000000000E+00   0.00000000000000E+00
      0.00000000000000E+00   0.00000000000000E+00   7.40109174601063E-16   0.00000000000000E+00   0.00000000000000E+00
      0.00000000000000E+00   0.00000000000000E+00   1.90675641793492E-14   2.37650240789955E-15   2.14440665872488E-14
     -5.06468490420970E-15   3.00000000000000E+02  -1.84223277114637E-04  -7.38130660325732E-16   0.00000000000000E+00
      4.50000000000000E-01   4.32142151936848E-01   0.00000000000000E+00   0.00000000000000E+00   4.46446201578800E-04
      1.18226283701867E-19   4.46446201578800E-04   2.50274742206666E-15   0.00000000000000E+00   1.78578480640084E-02
      0.00000000000000E+00   0.00000000000000E+00  -4.46446201600244E-04   6.00550865572494E-20  -4.46446201600244E-04
      1.82182830754194E-15   3.00000000000000E+02   3.00616436376895E+02   3.01926465043681E+02   2.97484507767550E+02
      3.27000828675783E+02   2.60441770237201E+03   3.00000000000000E+02   3.00581109752723E+02   3.01926465043681E+02
      5.00000000000000E-01
      8.00000000000000E-01   8.00000000000000E-01   0.00000000000000E+00   0.00000000000000E+00   0.00000000000000E+00
      0.00000000000000E+00   0.00000000000000E+00   7.18249101583884E-16   0.00000000000000E+00   0.00000000000000E+00
      0.00000000000000E+00   0.00000000000000E+00   8.65260218761613E-14   7.34422412404239E-15   9.38702460002037E-14
     -5.12538669454060E-15   3.00000000000000E+02  -2.14799813038124E-04  -3.35684937540368E-15   0.00000000000000E+00
      5.00000000000000E-01   4.81362376522726E-01   0.00000000000000E+00   0.00000000000000E+00   4.65940586931847E-04
      1.21525427473467E-19   4.65940586931847E-04   2.58282724718750E-15   0.00000000000000E+00   1.86376234810296E-02
      0.00000000000000E+00   0.00000000000000E+00  -4.65940587025717E-04   6.32399224772806E-20  -4.65940587025717E-04
      1.82431034576924E-15   3.00000000000000E+02   3.00718918436545E+02   3.02264068222754E+02   2.97655092586695E+02
      3.31988811774728E+02   2.83841489419237E+03   3.00000000000000E+02   3.00677721215346E+02   3.02264068222754E+02
      5.50000000000000E-01
      8.00000000000000E-01   8.00000000000000E-01   0.00000000000000E+00   0.00000000000000E+00   0.00000000000000E+00
      0.00000000000000E+00   0.00000000000000E+00   6.97529675010772E-16   0.00000000000000E+00   0.00000000000000E+00
      0.00000000000000E+00   0.00000000000000E+00   2.99559724329013E-13   1.79411102770647E-14   3.17500834606077E-13
     -5.18592814527751E-15   3.00000000000000E+02  -2.45860496522179E-04  -1.16198598946806E-14   0.00000000000000E+00
      5.50000000000000E-01   5.30702073771404E-01   0.00000000000000E+00   0.00000000000000E+00   4.82448155714883E-04
      1.24962603532739E-19   4.82448155714883E-04   2.66206596188119E-15   0.00000000000000E+00   1.92979262412955E-02
      0.00000000000000E+00   0.00000000000000E+00  -4.82448156032385E-04   6.62413963618042E-20  -4.82448156032384E-04
      1.82633250838557E-15   3.00000000000000E+02   3.00823062652499E+02   3.02609086586140E+02   2.97845486090624E+02
      3.36592614376709E+02   3.03809999729623E+03   3.00000000000000E+02   3.00775906286503E+02   3.02609086586140E+02
      6.00000000000000E-01
      8.00000000000000E-01   8.00000000000000E-01   0.00000000000000E+00   0.00000000000000E+00   0.00000000000000E+00
      0.00000000000000E+00   0.00000000000000E+00   6.77845181944982E-16   0.00000000000000E+00   0.00000000000000E+00
      0.00000000000000E+00   0.00000000000000E+00   8.40682357136842E-13   3.88879358846041E-14   8.79570293021446E-13
     -5.24624445484526E-15   3.00000000000000E+02  -2.77320468845269E-04  -3.26104914993831E-14   0.00000000000000E+00
      6.00000000000000E-01   5.80135066304688E-01   0.00000000000000E+00   0.00000000000000E+00   4.96623342382773E-04
      1.28537771597417E-19   4.96623342382773E-04   2.74040333601020E-15   0.00000000000000E+00   1.98649337304925E-02
      0.00000000000000E+00   0.00000000000000E+00  -4.96623343262344E-04   6.91203398594234E-20  -4.96623343262344E-04
      1.82799593689014E-15   3.00000000000000E+02   3.00928585676006E+02   3.02959023052058E+02   2.98053635188421E+02
      3.40954014018137E+02   3.21186121746376E+03   3.00000000000000E+02   3.00875398528414E+02   3.02959023052058E+02
      6.50000000000000E-01
      8.00000000000000E-01   8.00000000000000E-01   0.00000000000000E+00   0.00000000000000E+00   0.00000000000000E+00
      0.00000000000000E+00   0.00000000000000E+00   6.59089763259040E-16   0.00000000000000E+00   0.00000000000000E+00
      0.00000000000000E+00   0.00000000000000E+00   2.00478458503694E-12   7.81678848307425E-14   2.08295246986768E-12
     -5.30627051597348E-15   3.00000000000000E+02  -3.09133959274576E-04  -7.77741390515254E-14   0.00000000000000E+00
      6.50000000000000E-01   6.29641003282198E-01   0.00000000000000E+00   0.00000000000000E+00   5.08974917945058E-04
      1.32185480547148E-19   5.08974917945058E-04   2.81780202000182E-15   0.00000000000000E+00   2.03589968011201E-02
      0.00000000000000E+00   0.00000000000000E+00  -5.08974920028012E-04   7.19250952712494E-20  -5.08974920028012E-04
      1.82937873271264E-15   3.00000000000000E+02   3.01035335575378E+02   3.03315732193619E+02   2.98283324894086E+02
      3.45154315669438E+02   3.36144949215446E+03   3.00000000000000E+02   3.00976054973450E+02   3.03315732193619E+02
      7.00000000000000E-01
      8.00000000000000E-01   8.00000000000000E-01   0.00000000000000E+00   0.00000000000000E+00   0.00000000000000E+00
      0.00000000000000E+00   0.00000000000000E+00   6.41161978263080E-16   0.00000000000000E+00   0.00000000000000E+00
      0.00000000000000E+00   0.00000000000000E+00   4.20725439127160E-12   1.43013819447436E-13   4.35026821071903E-12
     -5.36594522248703E-15   3.00000000000000E+02  -3.41274550874965E-04  -1.63223704099697E-13   0.00000000000000E+00
      7.00000000000000E-01   6.79204501375672E-01   0.00000000000000E+00   0.00000000000000E+00   5.19887465608213E-04
      1.36097180825239E-19   5.19887465608213E-04   2.89424236028921E-15   0.00000000000000E+00   2.07954987983372E-02
      0.00000000000000E+00   0.00000000000000E+00  -5.19887469958482E-04   7.46886860280988E-20  -5.19887469958482E-04
      1.83054088393478E-15   3.00000000000000E+02   3.01143225512101E+02   3.03675928355347E+02   2.98540274961995E+02
      3.49207820167018E+02   3.51159968013554E+03   3.00000000000000E+02   3.01077793806835E+02   3.03675928355347E+02
      7.50000000000000E-01
      8.00000000000000E-01   8.00000000000000E-01   0.00000000000000E+00   0.00000000000000E+00   0.00000000000000E+00
      0.00000000000000E+00   0.00000000000000E+00   6.23971647923640E-16   0.00000000000000E+00   0.00000000000000E+00
      0.00000000000000E+00   0.00000000000000E+00   8.17152747948093E-12   2.41025786203792E-13   8.41255326568472E-12
     -5.42521286086567E-15   3.00000000000000E+02  -3.73730383272851E-04  -3.09403508619423E-13   0.00000000000000E+00
      7.50000000000000E-01   7.28813704521580E-01   0.00000000000000E+00   0.00000000000000E+00   5.29657386285338E-04
      1.28296087464736E-19   5.29657386285339E-04   2.96971468001485E-15   0.00000000000000E+00   2.11862958070513E-02
      0.00000000000000E+00   0.00000000000000E+00  -5.29657394697894E-04   7.74408191962210E-20  -5.29657394697894E-04
      1.83152653292721E-15   3.00000000000000E+02   3.01252217723009E+02   3.04039115633974E+02   2.98834036389584E+02
      3.53103402339410E+02   3.66010780602647E+03   3.00000000000000E+02   3.01180579291760E+02   3.04039115633974E+02
      8.00000000000000E-01
      8.00000000000000E-01   8.00000000000000E-01   0.00000000000000E+00   0.00000000000000E+00   0.00000000000000E+00
      0.00000000000000E+00   0.00000000000000E+00   6.07436602688665E-16   0.00000000000000E+00   0.00000000000000E+00
      0.00000000000000E+00   0.00000000000000E+00   1.39232299018882E-11   3.83269542555619E-13   1.43064994444438E-11
     -5.48402245465974E-15   3.00000000000000E+02  -4.06492829246260E-04  -5.40214941746894E-13   0.00000000000000E+00
      8.00000000000000E-01   7.78459759409885E-01   0.00000000000000E+00   0.00000000000000E+00   5.38506014752875E-04
      1.44301911012370E-19   5.38506014752875E-04   3.04421606985225E-15   0.00000000000000E+00   2.15402411623752E-02
      0.00000000000000E+00   0.00000000000000E+00  -5.38506029059378E-04   8.02002873083155E-20  -5.38506029059378E-04
      1.83236978211888E-15   3.00000000000000E+02   3.01362285336841E+02   3.04407428527749E+02   2.99176091472375E+02
      3.56869860540975E+02   3.80041533820066E+03   3.00000000000000E+02   3.01284385909053E+02   3.04407428527749E+02
      8.50000000000000E-01
      8.00000000000000E-01   8.00000000000000E-01   0.00000000000000E+00   0.00000000000000E+00   0.00000000000000E+00
      0.00000000000000E+00   0.00000000000000E+00   5.91484552676745E-16   0.00000000000000E+00   0.00000000000000E+00
      0.00000000000000E+00   0.00000000000000E+00   2.27288534435007E-11   5.80846911911523E-13   2.33097003554122E-11
     -5.54232715552818E-15   3.00000000000000E+02  -4.39556116037364E-04  -8.81907950429793E-13   0.00000000000000E+00
      8.50000000000000E-01   8.28135900066399E-01   0.00000000000000E+00   0.00000000000000E+00   5.46602498340031E-04
      1.48640248477004E-19   5.46602498340031E-04   3.11774607450677E-15   0.00000000000000E+00   2.18641008659889E-02
      0.00000000000000E+00   0.00000000000000E+00  -5.46602521649734E-04   8.29853088212131E-20  -5.46602521649734E-04
      1.83309652834469E-15   3.00000000000000E+02   3.01473411103840E+02   3.04779216097999E+02   2.99579373874241E+02
      3.60534769959807E+02   3.93857856880602E+03   3.00000000000000E+02   3.01389197170677E+02   3.04779216097999E+02
      9.00000000000000E-01
      8.00000000000000E-01   8.00000000000000E-01   0.00000000000000E+00   0.00000000000000E+00   0.00000000000000E+00
      0.00000000000000E+00   0.00000000000000E+00   5.76052279292600E-16   0.00000000000000E+00   0.00000000000000E+00
      0.00000000000000E+00   0.00000000000000E+00   3.50961288134556E-11   8.42837248391787E-13   3.59389660618474E-11
     -5.60008362817886E-15   3.00000000000000E+02  -4.72915689462978E-04  -1.36183417783398E-12   0.00000000000000E+00
      9.00000000000000E-01   8.77836913762751E-01   0.00000000000000E+00   0.00000000000000E+00   5.54077155931236E-04
      1.53150925565383E-19   5.54077155931236E-04   3.19030470616643E-15   0.00000000000000E+00   2.21630876748066E-02
      0.00000000000000E+00   0.00000000000000E+00  -5.54077191870205E-04   8.58082408740237E-20  -5.54077191870205E-04
      1.83372664271983E-15   3.00000000000000E+02   3.01585581864273E+02   3.05153575086515E+02   3.00000000000000E+02
      3.64100931419705E+02   4.08253066738187E+03   3.00000000000000E+02   3.01495000433703E+02   3.05153575086515E+02
      9.50000000000000E-01
      8.00000000000000E-01   8.00000000000000E-01   0.00000000000000E+00   0.00000000000000E+00   0.00000000000000E+00
      0.00000000000000E+00   0.00000000000000E+00   5.61084695963797E-16   0.00000000000000E+00   0.00000000000000E+00
      0.00000000000000E+00   0.00000000000000E+00   5.17283359404017E-11   1.17850646660610E-12   5.29068424070078E-11
     -5.65725193277119E-15   3.00000000000000E+02  -5.06567493197213E-04  -2.00730635351170E-12   0.00000000000000E+00
      9.50000000000000E-01   9.27558738739197E-01   0.00000000000000E+00   0.00000000000000E+00   5.61031531520083E-04
      1.57842378182791E-19   5.61031531520083E-04   3.26189169003592E-15   0.00000000000000E+00   2.24412633770759E-02
      0.00000000000000E+00   0.00000000000000E+00  -5.61031584426928E-04   8.86799919840070E-20  -5.61031584426928E-04
      1.83427554677148E-15   3.00000000000000E+02   3.01698786108523E+02   3.05531549269508E+02   3.00000000000000E+02
      3.67571650681921E+02   4.23153600732190E+03   3.00000000000000E+02   3.01601784613172E+02   3.05531549269508E+02
      1.00000000000000E+00
      8.00000000000000E-01   8.00000000000000E-01   0.00000000000000E+00   0.00000000000000E+00   0.00000000000000E+00
      0.00000000000000E+00   0.00000000000000E+00   5.46533841100620E-16   0.00000000000000E+00   0.00000000000000E+00
      0.00000000000000E+00   0.00000000000000E+00  -3.34468234952967E-10   1.59796810849423E-12  -3.32870266844473E-10
     -5.71379605423902E-15   3.00000000000000E+02  -5.40507815761590E-04  -2.84451264351917E-12   0.00000000000000E+00
      1.00000000000000E+00   9.77298171618210E-01   0.00000000000000E+00   0.00000000000000E+00   5.67545974646166E-04
      2.38086311151074E-19   5.67545974646166E-04   3.33250682276229E-15   0.00000000000000E+00   2.27018313776989E-02
      0.00000000000000E+00   0.00000000000000E+00  -5.67545641775901E-04   9.16104541524458E-20  -5.67545641775901E-04
      1.83475539037611E-15   3.00000000000000E+02   3.01813013448604E+02   3.05912170625191E+02   3.00000000000000E+02
      3.70965668810821E+02   4.37649879844908E+03   3.00000000000000E+02   3.01709539693329E+02   3.05912170625191E+02
}
