DF-ISE text

Info {
  version   = 1.0
  type      = xyplot
  datasets  = [
    "time"
    "gate OuterVoltage" "gate InnerVoltage" "gate QuasiFermiPotential" "gate DisplacementCurrent" "gate eCurrent"
    "gate hCurrent" "gate TotalCurrent" "gate Charge" "substrate OuterVoltage" "substrate InnerVoltage"
    "substrate QuasiFermiPotential" "substrate DisplacementCurrent" "substrate eCurrent" "substrate hCurrent" "substrate TotalCurrent"
    "substrate Charge" "substrate Temperature" "substrate lHeatFlux" "substrate eHeatFlux" "substrate hHeatFlux"
    "drain OuterVoltage" "drain InnerVoltage" "drain QuasiFermiPotential" "drain DisplacementCurrent" "drain eCurrent"
    "drain hCurrent" "drain TotalCurrent" "drain Charge" "source OuterVoltage" "source InnerVoltage"
    "source QuasiFermiPotential" "source DisplacementCurrent" "source eCurrent" "source hCurrent" "source TotalCurrent"
    "source Charge" "lTmin" "lTave" "lTmax" "eTmin"
    "eTave" "eTmax" "hTmin" "hTave" "hTmax" ]
  functions = [
    Time
    OuterVoltage InnerVoltage QuasiFermiPotential DisplacementCurrent eCurrent
    hCurrent TotalCurrent Charge OuterVoltage InnerVoltage
    QuasiFermiPotential DisplacementCurrent eCurrent hCurrent TotalCurrent
    Charge Temperature lHeatFlux eHeatFlux hHeatFlux
    OuterVoltage InnerVoltage QuasiFermiPotential DisplacementCurrent eCurrent
    hCurrent TotalCurrent Charge OuterVoltage InnerVoltage
    QuasiFermiPotential DisplacementCurrent eCurrent hCurrent TotalCurrent
    Charge MinTemperature AveTemperature MaxTemperature MinTemperature
    AveTemperature MaxTemperature MinTemperature AveTemperature MaxTemperature ]
}

Data {
      0.00000000000000E+00
      1.00000000000000E+00   1.00000000000000E+00   0.00000000000000E+00   0.00000000000000E+00   0.00000000000000E+00
      0.00000000000000E+00   0.00000000000000E+00   1.22339480055509E-15   0.00000000000000E+00   0.00000000000000E+00
      0.00000000000000E+00   0.00000000000000E+00  -1.58932059730564E-18  -3.34006318952632E-26  -1.58932063070627E-18
     -4.59299592345985E-15   3.00000000000000E+02   0.00000000000000E+00  -4.95345503116618E-36   0.00000000000000E+00
      0.00000000000000E+00   1.83689474415054E-17   0.00000000000000E+00   0.00000000000000E+00  -5.04293290997808E-19
      1.69493318110563E-26  -5.04293274048476E-19   1.68480056145240E-15   0.00000000000000E+00  -9.18447372075268E-18
      0.00000000000000E+00   0.00000000000000E+00   2.09361388830725E-18   1.64474862068487E-26   2.09361390475474E-18
      1.68480056145237E-15   3.00000000000000E+02   2.99999999999994E+02   3.00000000000000E+02   3.00000000000000E+02
      2.99999999999994E+02   3.00000000000000E+02   3.00000000000000E+02   2.99999999999994E+02   3.00000000000000E+02
      5.00000000000000E-02
      1.00000000000000E+00   1.00000000000000E+00   0.00000000000000E+00   0.00000000000000E+00   0.00000000000000E+00
      0.00000000000000E+00   0.00000000000000E+00   1.19388912417381E-15   0.00000000000000E+00   0.00000000000000E+00
      0.00000000000000E+00   0.00000000000000E+00   1.19298489802444E-13  -2.46760903287362E-16   1.19051728899156E-13
     -4.65897504181366E-15   3.00000000000000E+02  -3.63867496970913E-06   2.61613037179740E-21   0.00000000000000E+00
      5.00000000000000E-02   4.66087679319300E-02   0.00000000000000E+00   0.00000000000000E+00   8.47808017160427E-05
      8.70326913174361E-20   8.47808017160428E-05   1.76814389812614E-15   0.00000000000000E+00   3.39123206806010E-03
      0.00000000000000E+00   0.00000000000000E+00  -8.47808018350947E-05   1.31559599952852E-20  -8.47808018350947E-05
      1.69694201951370E-15   3.00000000000000E+02   3.00012146995746E+02   3.00043961099970E+02   2.90099133134985E+02
      3.00060388806390E+02   3.29435261932297E+02   3.00000000000000E+02   3.00011457551249E+02   3.00043961099970E+02
      1.00000000000000E-01
      1.00000000000000E+00   1.00000000000000E+00   0.00000000000000E+00   0.00000000000000E+00   0.00000000000000E+00
      0.00000000000000E+00   0.00000000000000E+00   1.16400796442952E-15   0.00000000000000E+00   0.00000000000000E+00
      0.00000000000000E+00   0.00000000000000E+00   1.49779933346373E-13  -4.17923203740183E-16   1.49362010142633E-13
     -4.72301961979581E-15   3.00000000000000E+02  -1.42543144331030E-05   3.27966663265084E-21   0.00000000000000E+00
      1.00000000000000E-01   9.33842007244543E-02   0.00000000000000E+00   0.00000000000000E+00   1.65394981796769E-04
      9.98804772191425E-20   1.65394981796769E-04   1.85049551969691E-15   0.00000000000000E+00   6.61579927552905E-03
      0.00000000000000E+00   0.00000000000000E+00  -1.65394981946131E-04   2.42766699789350E-20  -1.65394981946131E-04
      1.70851613566939E-15   3.00000000000000E+02   3.00047594246637E+02   3.00154496005730E+02   2.85516207049887E+02
      3.00185716304059E+02   3.79936412297713E+02   3.00000000000000E+02   3.00044889898590E+02   3.00154496005730E+02
      1.50000000000000E-01
      1.00000000000000E+00   1.00000000000000E+00   0.00000000000000E+00   0.00000000000000E+00   0.00000000000000E+00
      0.00000000000000E+00   0.00000000000000E+00   1.13398101077886E-15   0.00000000000000E+00   0.00000000000000E+00
      0.00000000000000E+00   0.00000000000000E+00  -4.84785377330431E-17  -5.49203464217586E-16  -5.97682001950629E-16
     -4.78535626881830E-15   3.00000000000000E+02  -3.12990552829463E-05   3.55756981016430E-21   0.00000000000000E+00
      1.50000000000000E-01   1.40359441076242E-01   0.00000000000000E+00   0.00000000000000E+00   2.41013973094018E-04
      1.02645283142931E-19   2.41013973094018E-04   1.93198072024019E-15   0.00000000000000E+00   9.64055892373543E-03
      0.00000000000000E+00   0.00000000000000E+00  -2.41013973093421E-04   3.37470345060259E-20  -2.41013973093421E-04
      1.71939453779925E-15   3.00000000000000E+02   3.00104530996474E+02   3.00325686266623E+02   2.78372727201812E+02
      3.00376509102530E+02   4.43413977313231E+02   3.00000000000000E+02   3.00098584770171E+02   3.00325686266623E+02
      2.00000000000000E-01
      1.00000000000000E+00   1.00000000000000E+00   0.00000000000000E+00   0.00000000000000E+00   0.00000000000000E+00
      0.00000000000000E+00   0.00000000000000E+00   1.10412246457627E-15   0.00000000000000E+00   0.00000000000000E+00
      0.00000000000000E+00   0.00000000000000E+00  -1.74861320704388E-17  -6.51087536581897E-16  -6.68573668652336E-16
     -4.84624714570753E-15   3.00000000000000E+02  -5.40929401443137E-05   3.67987313940492E-21   0.00000000000000E+00
      2.00000000000000E-01   1.87566808837592E-01   0.00000000000000E+00   0.00000000000000E+00   3.10829779060224E-04
      1.04965141885692E-19   3.10829779060224E-04   2.01267935323622E-15   0.00000000000000E+00   1.24331911623824E-02
      0.00000000000000E+00   0.00000000000000E+00  -3.10829779059557E-04   4.19413227529060E-20  -3.10829779059557E-04
      1.72944532789502E-15   3.00000000000000E+02   3.00180707966833E+02   3.00549945532966E+02   2.73183568510382E+02
      3.00717248897925E+02   5.81742075944243E+02   3.00000000000000E+02   3.00170417544193E+02   3.00549945532966E+02
      2.50000000000000E-01
      1.00000000000000E+00   1.00000000000000E+00   0.00000000000000E+00   0.00000000000000E+00   0.00000000000000E+00
      0.00000000000000E+00   0.00000000000000E+00   1.07454094680642E-15   0.00000000000000E+00   0.00000000000000E+00
      0.00000000000000E+00   0.00000000000000E+00   1.65498348385086E-20  -7.25508631385152E-16  -7.25492081550313E-16
     -4.90591122409247E-15   3.00000000000000E+02  -8.19691278178904E-05   2.87209440434846E-21   0.00000000000000E+00
      2.50000000000000E-01   2.35006146083325E-01   0.00000000000000E+00   0.00000000000000E+00   3.74846347916876E-04
      1.07777190150679E-19   3.74846347916876E-04   2.09271696340953E-15   0.00000000000000E+00   1.49938539166459E-02
      0.00000000000000E+00   0.00000000000000E+00  -3.74846347916151E-04   4.92034649393507E-20  -3.74846347916151E-04
      1.73865331387650E-15   3.00000000000000E+02   3.00273918024586E+02   3.00820381724762E+02   2.91637817049687E+02
      3.01759266016768E+02   9.25079133976414E+02   3.00000000000000E+02   3.00258305751299E+02   3.00820381724762E+02
      3.00000000000000E-01
      1.00000000000000E+00   1.00000000000000E+00   0.00000000000000E+00   0.00000000000000E+00   0.00000000000000E+00
      0.00000000000000E+00   0.00000000000000E+00   1.04533419527018E-15   0.00000000000000E+00   0.00000000000000E+00
      0.00000000000000E+00   0.00000000000000E+00  -1.19583355659382E-17  -7.68870813699925E-16  -7.80829149265863E-16
     -4.96459814519308E-15   3.00000000000000E+02  -1.14245555978288E-04  -2.01391912870403E-20   0.00000000000000E+00
      3.00000000000000E-01   2.82677117001051E-01   0.00000000000000E+00   0.00000000000000E+00   4.33072074973690E-04
      1.11055854818467E-19   4.33072074973690E-04   2.17225337890843E-15   0.00000000000000E+00   1.73228829989177E-02
      0.00000000000000E+00   0.00000000000000E+00  -4.33072074972909E-04   5.57785843052051E-20  -4.33072074972909E-04
      1.74701057101452E-15   3.00000000000000E+02   3.00381903692219E+02   3.01130211642369E+02   2.96211903693362E+02
      3.05048502761239E+02   1.25711298561750E+03   3.00000000000000E+02   3.00360119514922E+02   3.01130211642369E+02
      3.50000000000000E-01
      1.00000000000000E+00   1.00000000000000E+00   0.00000000000000E+00   0.00000000000000E+00   0.00000000000000E+00
      0.00000000000000E+00   0.00000000000000E+00   1.01672590680536E-15   0.00000000000000E+00   0.00000000000000E+00
      0.00000000000000E+00   0.00000000000000E+00   1.17425803985202E-17  -7.29616094769872E-16  -7.17873514371352E-16
     -5.02260855824491E-15   3.00000000000000E+02  -1.50176835150873E-04  -4.93142380325580E-19   0.00000000000000E+00
      3.50000000000000E-01   3.30586500439376E-01   0.00000000000000E+00   0.00000000000000E+00   4.85337489015590E-04
      1.14770490777779E-19   4.85337489015591E-04   2.25140489329685E-15   0.00000000000000E+00   1.94134995605949E-02
      0.00000000000000E+00   0.00000000000000E+00  -4.85337489014873E-04   6.18257593131476E-20  -4.85337489014873E-04
      1.75447775814269E-15   3.00000000000000E+02   3.00502191311599E+02   3.01481978331584E+02   2.96529988160895E+02
      3.11110135417184E+02   1.67209487211169E+03   3.00000000000000E+02   3.00473526816126E+02   3.01481978331584E+02
      4.00000000000000E-01
      1.00000000000000E+00   1.00000000000000E+00   0.00000000000000E+00   0.00000000000000E+00   0.00000000000000E+00
      0.00000000000000E+00   0.00000000000000E+00   9.88910530319873E-16   0.00000000000000E+00   0.00000000000000E+00
      0.00000000000000E+00   0.00000000000000E+00   1.79027667081068E-16  -4.74205785324203E-16  -2.95178118243135E-16
     -5.08021293069728E-15   3.00000000000000E+02  -1.89033100325519E-04  -6.91334322977941E-18   0.00000000000000E+00
      4.00000000000000E-01   3.78733270865089E-01   0.00000000000000E+00   0.00000000000000E+00   5.31668228372768E-04
      1.18884878648522E-19   5.31668228372769E-04   2.33025418465589E-15   0.00000000000000E+00   2.12667291348989E-02
      0.00000000000000E+00   0.00000000000000E+00  -5.31668228372473E-04   6.74658428339817E-20  -5.31668228372473E-04
      1.76104821572144E-15   3.00000000000000E+02   3.00632354862645E+02   3.01883028983500E+02   2.96807972015194E+02
      3.16689036220581E+02   2.07968418840961E+03   3.00000000000000E+02   3.00596241247323E+02   3.01883028983500E+02
      4.50000000000000E-01
      1.00000000000000E+00   1.00000000000000E+00   0.00000000000000E+00   0.00000000000000E+00   0.00000000000000E+00
      0.00000000000000E+00   0.00000000000000E+00   9.62054738649911E-16   0.00000000000000E+00   0.00000000000000E+00
      0.00000000000000E+00   0.00000000000000E+00   1.64234154757924E-15   7.58251813871663E-18   1.64992406571796E-15
     -5.13762956527071E-15   3.00000000000000E+02  -2.30135468803959E-04  -6.39955483471170E-17   0.00000000000000E+00
      4.50000000000000E-01   4.27109140659253E-01   0.00000000000000E+00   0.00000000000000E+00   5.72271483518676E-04
      1.23368075313329E-19   5.72271483518676E-04   2.40883082469595E-15   0.00000000000000E+00   2.28908593408130E-02
      0.00000000000000E+00   0.00000000000000E+00  -5.72271483520324E-04   7.27921554240938E-20  -5.72271483520323E-04
      1.76674400192492E-15   3.00000000000000E+02   3.00770134071488E+02   3.02312833980514E+02   2.97363841497911E+02
      3.22124332593744E+02   2.37476647112146E+03   3.00000000000000E+02   3.00726133152404E+02   3.02312833980514E+02
      5.00000000000000E-01
      1.00000000000000E+00   1.00000000000000E+00   0.00000000000000E+00   0.00000000000000E+00   0.00000000000000E+00
      0.00000000000000E+00   0.00000000000000E+00   9.36278072551440E-16   0.00000000000000E+00   0.00000000000000E+00
      0.00000000000000E+00   0.00000000000000E+00   1.06405419986295E-14   1.25268333438352E-15   1.18932253330130E-14
     -5.19500673718048E-15   3.00000000000000E+02  -2.72892679526599E-04  -4.12615713903434E-16   0.00000000000000E+00
      5.00000000000000E-01   4.75698921141945E-01   0.00000000000000E+00   0.00000000000000E+00   6.07526971451364E-04
      1.28189281519198E-19   6.07526971451364E-04   2.48711107652278E-15   0.00000000000000E+00   2.43010788585301E-02
      0.00000000000000E+00   0.00000000000000E+00  -6.07526971463258E-04   7.78795397114509E-20  -6.07526971463258E-04
      1.77161758810619E-15   3.00000000000000E+02   3.00913557070079E+02   3.02765081183979E+02   2.97837183212025E+02
      3.27740197951071E+02   2.65346789337707E+03   3.00000000000000E+02   3.00861345196043E+02   3.02765081183979E+02
      5.50000000000000E-01
      1.00000000000000E+00   1.00000000000000E+00   0.00000000000000E+00   0.00000000000000E+00   0.00000000000000E+00
      0.00000000000000E+00   0.00000000000000E+00   9.11645303211372E-16   0.00000000000000E+00   0.00000000000000E+00
      0.00000000000000E+00   0.00000000000000E+00   5.05897944424783E-14   5.00972413281682E-15   5.55995185752951E-14
     -5.25241970051174E-15   3.00000000000000E+02  -3.16827367321006E-04  -1.96317846769736E-15   0.00000000000000E+00
      5.50000000000000E-01   5.24481844114402E-01   0.00000000000000E+00   0.00000000000000E+00   6.37953897139951E-04
      1.33323750355862E-19   6.37953897139951E-04   2.56502865759125E-15   0.00000000000000E+00   2.55181558878221E-02
      0.00000000000000E+00   0.00000000000000E+00  -6.37953897195550E-04   8.27903539701662E-20  -6.37953897195550E-04
      1.77574573970912E-15   3.00000000000000E+02   3.01061029436360E+02   3.03234295275367E+02   2.98150872044946E+02
      3.32873533936007E+02   2.88974145277499E+03   3.00000000000000E+02   3.01000376012071E+02   3.03234295275367E+02
      6.00000000000000E-01
      1.00000000000000E+00   1.00000000000000E+00   0.00000000000000E+00   0.00000000000000E+00   0.00000000000000E+00
      0.00000000000000E+00   0.00000000000000E+00   8.88169341453572E-16   0.00000000000000E+00   0.00000000000000E+00
      0.00000000000000E+00   0.00000000000000E+00   1.87521187650933E-13   1.33445090654443E-14   2.00865696716377E-13
     -5.30988033503941E-15   3.00000000000000E+02  -3.61582731596213E-04  -7.27549199799845E-15   0.00000000000000E+00
      6.00000000000000E-01   5.73433886987367E-01   0.00000000000000E+00   0.00000000000000E+00   6.64152825315820E-04
      1.38755235100423E-19   6.64152825315820E-04   2.64249174985640E-15   0.00000000000000E+00   2.65661130206673E-02
      0.00000000000000E+00   0.00000000000000E+00  -6.64152825516686E-04   8.75805264069102E-20  -6.64152825516686E-04
      1.77921924372938E-15   3.00000000000000E+02   3.01211357837900E+02   3.03716194350381E+02   2.98433226137490E+02
      3.37641989322587E+02   3.09635330823242E+03   3.00000000000000E+02   3.01142102311955E+02   3.03716194350381E+02
      6.50000000000000E-01
      1.00000000000000E+00   1.00000000000000E+00   0.00000000000000E+00   0.00000000000000E+00   0.00000000000000E+00
      0.00000000000000E+00   0.00000000000000E+00   8.65821484509376E-16   0.00000000000000E+00   0.00000000000000E+00
      0.00000000000000E+00   0.00000000000000E+00   5.67083185244371E-13   3.07896958459934E-14   5.97872881090364E-13
     -5.36735395429022E-15   3.00000000000000E+02  -4.06911386653007E-04  -2.20011738885681E-14   0.00000000000000E+00
      6.50000000000000E-01   6.22530299587430E-01   0.00000000000000E+00   0.00000000000000E+00   6.86742510314209E-04
      1.44475825926126E-19   6.86742510314209E-04   2.71940018053291E-15   0.00000000000000E+00   2.74697004364831E-02
      0.00000000000000E+00   0.00000000000000E+00  -6.86742510912082E-04   9.22986043106810E-20  -6.86742510912082E-04
      1.78213228924792E-15   3.00000000000000E+02   3.01363714046732E+02   3.04207995261222E+02   2.98802846148339E+02
      3.42173608414372E+02   3.26874850853921E+03   3.00000000000000E+02   3.01285744775528E+02   3.04207995261222E+02
      7.00000000000000E-01
      1.00000000000000E+00   1.00000000000000E+00   0.00000000000000E+00   0.00000000000000E+00   0.00000000000000E+00
      0.00000000000000E+00   0.00000000000000E+00   8.44545610727785E-16   0.00000000000000E+00   0.00000000000000E+00
      0.00000000000000E+00   0.00000000000000E+00   1.45408519821959E-12   6.48321771374721E-14   1.51891737535706E-12
     -5.42477723131741E-15   3.00000000000000E+02  -4.52655438226998E-04  -5.64202700935483E-14   0.00000000000000E+00
      7.00000000000000E-01   6.71747543577482E-01   0.00000000000000E+00   0.00000000000000E+00   7.06311410562932E-04
      1.50445104985853E-19   7.06311410562932E-04   2.79565798790516E-15   0.00000000000000E+00   2.82524564832731E-02
      0.00000000000000E+00   0.00000000000000E+00  -7.06311412081852E-04   9.69885988872872E-20  -7.06311412081852E-04
      1.78457363268445E-15   3.00000000000000E+02   3.01517569393290E+02   3.04706991835801E+02   2.99333792279740E+02
      3.46554017021277E+02   3.42579952652993E+03   3.00000000000000E+02   3.01430806067851E+02   3.04706991835801E+02
      7.50000000000000E-01
      1.00000000000000E+00   1.00000000000000E+00   0.00000000000000E+00   0.00000000000000E+00   0.00000000000000E+00
      0.00000000000000E+00   0.00000000000000E+00   8.24266481804656E-16   0.00000000000000E+00   0.00000000000000E+00
      0.00000000000000E+00   0.00000000000000E+00   3.26156928740137E-12   1.22662675081976E-13   3.38423196248335E-12
     -5.48207255126571E-15   3.00000000000000E+02  -4.98717635618203E-04  -1.26563290001918E-13   0.00000000000000E+00
      7.50000000000000E-01   7.21064887106135E-01   0.00000000000000E+00   0.00000000000000E+00   7.23377822346603E-04
      1.56725791009657E-19   7.23377822346603E-04   2.87118246313755E-15   0.00000000000000E+00   2.89351130292343E-02
      0.00000000000000E+00   0.00000000000000E+00  -7.23377825730836E-04   1.01688831024197E-19  -7.23377825730836E-04
      1.78662360632352E-15   3.00000000000000E+02   3.01672598405389E+02   3.05212515291193E+02   2.99824727336237E+02
      3.50784131347279E+02   3.58552384933315E+03   3.00000000000000E+02   3.01576980149206E+02   3.05212515291193E+02
      8.00000000000000E-01
      1.00000000000000E+00   1.00000000000000E+00   0.00000000000000E+00   0.00000000000000E+00   0.00000000000000E+00
      0.00000000000000E+00   0.00000000000000E+00   8.04900813654843E-16   0.00000000000000E+00   0.00000000000000E+00
      0.00000000000000E+00   0.00000000000000E+00   6.55937591298838E-12   2.13587711933733E-13   6.77296362492211E-12
     -5.53915861396987E-15   3.00000000000000E+02  -5.45041461703209E-04  -2.54549188063664E-13   0.00000000000000E+00
      8.00000000000000E-01   7.70464749795722E-01   0.00000000000000E+00   0.00000000000000E+00   7.38381255106965E-04
      1.63329449615618E-19   7.38381255106965E-04   2.94590636034212E-15   0.00000000000000E+00   2.95352504751980E-02
      0.00000000000000E+00   0.00000000000000E+00  -7.38381261879932E-04   1.06431567855685E-19  -7.38381261879932E-04
      1.78835143997288E-15   3.00000000000000E+02   3.01828612491752E+02   3.05723215096536E+02   3.00000000000000E+02
      3.54845109738375E+02   3.73045076462390E+03   3.00000000000000E+02   3.01724089705424E+02   3.05723215096536E+02
      8.50000000000000E-01
      1.00000000000000E+00   1.00000000000000E+00   0.00000000000000E+00   0.00000000000000E+00   0.00000000000000E+00
      0.00000000000000E+00   0.00000000000000E+00   7.86366601337580E-16   0.00000000000000E+00   0.00000000000000E+00
      0.00000000000000E+00   0.00000000000000E+00   1.20614285264541E-11   3.51467041132523E-13   1.24128955675866E-11
     -5.59595637415284E-15   3.00000000000000E+02  -5.91599505446521E-04  -4.68095588352225E-13   0.00000000000000E+00
      8.50000000000000E-01   8.19932417754921E-01   0.00000000000000E+00   0.00000000000000E+00   7.51689556126978E-04
      1.70322154759370E-19   7.51689556126979E-04   3.01977630855402E-15   0.00000000000000E+00   3.00675827415954E-02
      0.00000000000000E+00   0.00000000000000E+00  -7.51689568539875E-04   1.11245685716482E-19  -7.51689568539875E-04
      1.78981346426121E-15   3.00000000000000E+02   3.01985521147272E+02   3.06236783204939E+02   3.00000000000000E+02
      3.58767737690594E+02   3.87267326712292E+03   3.00000000000000E+02   3.01872049617552E+02   3.06236783204939E+02
      9.00000000000000E-01
      1.00000000000000E+00   1.00000000000000E+00   0.00000000000000E+00   0.00000000000000E+00   0.00000000000000E+00
      0.00000000000000E+00   0.00000000000000E+00   7.68584425944051E-16   0.00000000000000E+00   0.00000000000000E+00
      0.00000000000000E+00   0.00000000000000E+00   2.05962676775045E-11   5.49879638225669E-13   2.11461473157302E-11
     -5.65239210228415E-15   3.00000000000000E+02  -6.38378859096608E-04  -7.99375816947023E-13   0.00000000000000E+00
      9.00000000000000E-01   8.69455980573356E-01   0.00000000000000E+00   0.00000000000000E+00   7.63600485666116E-04
      1.77582451649567E-19   7.63600485666116E-04   3.09275181914357E-15   0.00000000000000E+00   3.05440202724895E-02
      0.00000000000000E+00   0.00000000000000E+00  -7.63600506812266E-04   1.16156602820540E-19  -7.63600506812266E-04
      1.79105585719654E-15   3.00000000000000E+02   3.02143282856569E+02   3.06754960451843E+02   3.00000000000000E+02
      3.62573381260646E+02   4.03005702738689E+03   3.00000000000000E+02   3.02020820769988E+02   3.06754960451843E+02
      9.50000000000000E-01
      1.00000000000000E+00   1.00000000000000E+00   0.00000000000000E+00   0.00000000000000E+00   0.00000000000000E+00
      0.00000000000000E+00   0.00000000000000E+00   7.51480208820943E-16   0.00000000000000E+00   0.00000000000000E+00
      0.00000000000000E+00   0.00000000000000E+00   3.30659498305805E-11   8.20970973604292E-13   3.38869208041848E-11
     -5.70839889109384E-15   3.00000000000000E+02  -6.85374598809044E-04  -1.28343040421256E-12   0.00000000000000E+00
      9.50000000000000E-01   9.19025868188352E-01   0.00000000000000E+00   0.00000000000000E+00   7.74353295291229E-04
      1.85194172041453E-19   7.74353295291229E-04   3.16480271175702E-15   0.00000000000000E+00   3.09741331671275E-02
      0.00000000000000E+00   0.00000000000000E+00  -7.74353329178152E-04   1.21185115094646E-19  -7.74353329178152E-04
      1.79211597051592E-15   3.00000000000000E+02   3.02301883190639E+02   3.07277125212925E+02   3.00000000000000E+02
      3.66259846230650E+02   4.18572839059886E+03   3.00000000000000E+02   3.02170389435760E+02   3.07277125212925E+02
      1.00000000000000E+00
      1.00000000000000E+00   1.00000000000000E+00   0.00000000000000E+00   0.00000000000000E+00   0.00000000000000E+00
      0.00000000000000E+00   0.00000000000000E+00   7.34986505114017E-16   0.00000000000000E+00   0.00000000000000E+00
      0.00000000000000E+00   0.00000000000000E+00   5.04687050298566E-11   1.17849398677981E-12   5.16471990166364E-11
     -5.76391740593317E-15   3.00000000000000E+02  -7.32586041959518E-04  -1.95648911365458E-12   0.00000000000000E+00
      1.00000000000000E+00   9.68634403623212E-01   0.00000000000000E+00   0.00000000000000E+00   7.84139908959020E-04
      1.94708513958655E-19   7.84139908959020E-04   3.23590719971884E-15   0.00000000000000E+00   3.13655984400595E-02
      0.00000000000000E+00   0.00000000000000E+00  -7.84139960606220E-04   1.26351686662333E-19  -7.84139960606220E-04
      1.79302370110032E-15   3.00000000000000E+02   3.02461322152540E+02   3.07801411180052E+02   3.00000000000000E+02
      3.69836164360085E+02   4.33400050964048E+03   3.00000000000000E+02   3.02320755408250E+02   3.07801411180052E+02
}
