DF-ISE text

Info {
  version   = 1.0
  type      = xyplot
  datasets  = [
    "time"
    "gate OuterVoltage" "gate InnerVoltage" "gate QuasiFermiPotential" "gate DisplacementCurrent" "gate eCurrent"
    "gate hCurrent" "gate TotalCurrent" "gate Charge" "substrate OuterVoltage" "substrate InnerVoltage"
    "substrate QuasiFermiPotential" "substrate DisplacementCurrent" "substrate eCurrent" "substrate hCurrent" "substrate TotalCurrent"
    "substrate Charge" "substrate Temperature" "substrate lHeatFlux" "substrate eHeatFlux" "substrate hHeatFlux"
    "drain OuterVoltage" "drain InnerVoltage" "drain QuasiFermiPotential" "drain DisplacementCurrent" "drain eCurrent"
    "drain hCurrent" "drain TotalCurrent" "drain Charge" "source OuterVoltage" "source InnerVoltage"
    "source QuasiFermiPotential" "source DisplacementCurrent" "source eCurrent" "source hCurrent" "source TotalCurrent"
    "source Charge" "lTmin" "lTave" "lTmax" "eTmin"
    "eTave" "eTmax" "hTmin" "hTave" "hTmax" ]
  functions = [
    Time
    OuterVoltage InnerVoltage QuasiFermiPotential DisplacementCurrent eCurrent
    hCurrent TotalCurrent Charge OuterVoltage InnerVoltage
    QuasiFermiPotential DisplacementCurrent eCurrent hCurrent TotalCurrent
    Charge Temperature lHeatFlux eHeatFlux hHeatFlux
    OuterVoltage InnerVoltage QuasiFermiPotential DisplacementCurrent eCurrent
    hCurrent TotalCurrent Charge OuterVoltage InnerVoltage
    QuasiFermiPotential DisplacementCurrent eCurrent hCurrent TotalCurrent
    Charge MinTemperature AveTemperature MaxTemperature MinTemperature
    AveTemperature MaxTemperature MinTemperature AveTemperature MaxTemperature ]
}

Data {
      0.00000000000000E+00
      2.00000000000000E-01   2.00000000000000E-01   0.00000000000000E+00   0.00000000000000E+00   0.00000000000000E+00
      0.00000000000000E+00   0.00000000000000E+00   3.03909625196603E-16   0.00000000000000E+00   0.00000000000000E+00
      0.00000000000000E+00   0.00000000000000E+00  -1.41050278992071E-22   1.40195146741609E-27  -1.41048877040604E-22
     -4.29127253286214E-15   3.00000000000000E+02   0.00000000000000E+00  -8.25575838527696E-35   0.00000000000000E+00
      0.00000000000000E+00   0.00000000000000E+00   0.00000000000000E+00   0.00000000000000E+00  -9.70653745848017E-21
     -1.62317569046228E-27  -9.70653908165587E-21   1.99368145383278E-15   0.00000000000000E+00   0.00000000000000E+00
      0.00000000000000E+00   0.00000000000000E+00   9.84758773785641E-21   2.20840102028325E-28   9.84758795869651E-21
      1.99368145383278E-15   3.00000000000000E+02   2.99999999999994E+02   3.00000000000000E+02   3.00000000000000E+02
      2.99999999999994E+02   3.00000000000000E+02   3.00000000000000E+02   2.99999999999994E+02   3.00000000000000E+02
      5.00000000000000E-02
      2.00000000000000E-01   2.00000000000000E-01   0.00000000000000E+00   0.00000000000000E+00   0.00000000000000E+00
      0.00000000000000E+00   0.00000000000000E+00   2.82993459151239E-16   0.00000000000000E+00   0.00000000000000E+00
      0.00000000000000E+00   0.00000000000000E+00   1.60109215311997E-18  -2.37963588574033E-16  -2.36362496420913E-16
     -4.36806153480351E-15   3.00000000000000E+02  -2.60638287987467E-08   2.33256860537791E-21   0.00000000000000E+00
      5.00000000000000E-02   4.99791263446080E-02   0.00000000000000E+00   0.00000000000000E+00   5.21841384796867E-07
      8.83683332382575E-20   5.21841384796955E-07   2.09171883187404E-15   0.00000000000000E+00   2.08736553826403E-05
      0.00000000000000E+00   0.00000000000000E+00  -5.21841384560596E-07   8.66438447717714E-23  -5.21841384560596E-07
      1.99334924377823E-15   2.99999991852039E+02   3.00000087204363E+02   3.00000550590032E+02   2.78455494182231E+02
      3.00052194053547E+02   3.45592410361160E+02   2.99999991852039E+02   3.00000082134435E+02   3.00000550590032E+02
      1.00000000000000E-01
      2.00000000000000E-01   2.00000000000000E-01   0.00000000000000E+00   0.00000000000000E+00   0.00000000000000E+00
      0.00000000000000E+00   0.00000000000000E+00   2.63380883509949E-16   0.00000000000000E+00   0.00000000000000E+00
      0.00000000000000E+00   0.00000000000000E+00   1.72828436869010E-18  -3.92718543024524E-16  -3.90990258655834E-16
     -4.44339804277421E-15   3.00000000000000E+02  -7.19496475692381E-08   2.66341637264891E-21   0.00000000000000E+00
      1.00000000000000E-01   9.99711968314445E-02   0.00000000000000E+00   0.00000000000000E+00   7.20079213885994E-07
      9.84476620174460E-20   7.20079213886093E-07   2.18702776707799E-15   0.00000000000000E+00   2.88031685393872E-05
      0.00000000000000E+00   0.00000000000000E+00  -7.20079213495106E-07   1.20064404942047E-22  -7.20079213495106E-07
      1.99298939218630E-15   3.00000000000000E+02   3.00000240689751E+02   3.00001190489807E+02   2.74477451617139E+02
      3.00205605376954E+02   4.46409040392130E+02   3.00000000000000E+02   3.00000226718875E+02   3.00001190489807E+02
      1.50000000000000E-01
      2.00000000000000E-01   2.00000000000000E-01   0.00000000000000E+00   0.00000000000000E+00   0.00000000000000E+00
      0.00000000000000E+00   0.00000000000000E+00   2.44828796284864E-16   0.00000000000000E+00   0.00000000000000E+00
      0.00000000000000E+00   0.00000000000000E+00   1.24004107035015E-18  -5.00370876767488E-16  -4.99130835697138E-16
     -4.51698666060172E-15   3.00000000000000E+02  -1.28562926869224E-07  -9.96722100419901E-22   0.00000000000000E+00
      1.50000000000000E-01   1.49965693129191E-01   0.00000000000000E+00   0.00000000000000E+00   8.57671770226160E-07
      9.91174109833546E-20   8.57671770226259E-07   2.27951715779911E-15   0.00000000000000E+00   3.43068707893251E-05
      0.00000000000000E+00   0.00000000000000E+00  -8.57671769727131E-07   1.41948546660492E-22  -8.57671769727131E-07
      1.99264070651776E-15   3.00000000000000E+02   3.00000430009570E+02   3.00001930891314E+02   2.80341008466520E+02
      3.01769872213028E+02   9.89495223249195E+02   3.00000000000000E+02   3.00000405087268E+02   3.00001930891314E+02
      2.00000000000000E-01
      2.00000000000000E-01   2.00000000000000E-01   0.00000000000000E+00   0.00000000000000E+00   0.00000000000000E+00
      0.00000000000000E+00   0.00000000000000E+00   2.27185342342328E-16   0.00000000000000E+00   0.00000000000000E+00
      0.00000000000000E+00   0.00000000000000E+00   1.71274642128081E-18  -5.65541901644626E-16  -5.63829155223345E-16
     -4.58881472604313E-15   3.00000000000000E+02  -1.96734115223578E-07  -1.97915154447798E-19   0.00000000000000E+00
      2.00000000000000E-01   1.99960629015736E-01   0.00000000000000E+00   0.00000000000000E+00   9.84274606595254E-07
      9.91894953349045E-20   9.84274606595353E-07   2.36932312145438E-15   0.00000000000000E+00   3.93709842410225E-05
      0.00000000000000E+00   0.00000000000000E+00  -9.84274606031523E-07   1.63400103932984E-22  -9.84274606031523E-07
      1.99230626224641E-15   3.00000000000000E+02   3.00000657926358E+02   3.00002803547788E+02   2.81279364205028E+02
      3.06424626761668E+02   1.43635947967270E+03   3.00000000000000E+02   3.00000619850723E+02   3.00002803547788E+02
      2.50000000000000E-01
      2.00000000000000E-01   2.00000000000000E-01   0.00000000000000E+00   0.00000000000000E+00   0.00000000000000E+00
      0.00000000000000E+00   0.00000000000000E+00   2.10339232620149E-16   0.00000000000000E+00   0.00000000000000E+00
      0.00000000000000E+00   0.00000000000000E+00   8.14525317189080E-17  -5.74231765747638E-16  -4.92779234028730E-16
     -4.65900492501724E-15   3.00000000000000E+02  -2.77563913662203E-07  -3.15316797865543E-18   0.00000000000000E+00
      2.50000000000000E-01   2.49955564387548E-01   0.00000000000000E+00   0.00000000000000E+00   1.11089031130416E-06
      9.92671784642488E-20   1.11089031130426E-06   2.45668137764724E-15   0.00000000000000E+00   4.44356124325910E-05
      0.00000000000000E+00   0.00000000000000E+00  -1.11089031081148E-06   1.84583130232706E-22  -1.11089031081148E-06
      1.99198431474990E-15   3.00000000000000E+02   3.00000928106720E+02   3.00003825363266E+02   2.82490576593007E+02
      3.11851978762027E+02   1.86834028714896E+03   3.00000000000000E+02   3.00000874471886E+02   3.00003825363266E+02
      3.00000000000000E-01
      2.00000000000000E-01   2.00000000000000E-01   0.00000000000000E+00   0.00000000000000E+00   0.00000000000000E+00
      0.00000000000000E+00   0.00000000000000E+00   1.94196485687924E-16   0.00000000000000E+00   0.00000000000000E+00
      0.00000000000000E+00   0.00000000000000E+00   5.70443388583410E-16  -5.12724390390255E-16   5.77189981931556E-17
     -4.72773777558031E-15   3.00000000000000E+02  -3.71985238267553E-07  -2.22441671715095E-17   0.00000000000000E+00
      3.00000000000000E-01   2.99950375010184E-01   0.00000000000000E+00   0.00000000000000E+00   1.24062474541269E-06
      9.93470293695849E-20   1.24062474541279E-06   2.54186845377183E-15   0.00000000000000E+00   4.96249898187495E-05
      0.00000000000000E+00   0.00000000000000E+00  -1.24062474547050E-06   2.05850565471344E-22  -1.24062474547050E-06
      1.99167283612056E-15   3.00000000000000E+02   3.00001243658120E+02   3.00005015732191E+02   2.83854023268378E+02
      3.16352379500679E+02   2.19844524302380E+03   3.00000000000000E+02   3.00001171885432E+02   3.00005015732191E+02
      3.50000000000000E-01
      2.00000000000000E-01   2.00000000000000E-01   0.00000000000000E+00   0.00000000000000E+00   0.00000000000000E+00
      0.00000000000000E+00   0.00000000000000E+00   1.78670388756220E-16   0.00000000000000E+00   0.00000000000000E+00
      0.00000000000000E+00   0.00000000000000E+00   2.48154560946883E-15  -3.61953417501997E-16   2.11959219196683E-15
     -4.79520749952281E-15   3.00000000000000E+02  -4.80907061158685E-07  -9.62258340962320E-17   0.00000000000000E+00
      3.50000000000000E-01   3.49945010390833E-01   0.00000000000000E+00   0.00000000000000E+00   1.37474022916747E-06
      9.94257526493093E-20   1.37474022916757E-06   2.62516704510925E-15   0.00000000000000E+00   5.49896092514349E-05
      0.00000000000000E+00   0.00000000000000E+00  -1.37474023128716E-06   2.28279898207602E-22  -1.37474023128716E-06
      1.99137006565734E-15   3.00000000000000E+02   3.00001607611960E+02   3.00006380436896E+02   2.85336310400755E+02
      3.20528862406922E+02   2.48656496690388E+03   3.00000000000000E+02   3.00001514952114E+02   3.00006380436896E+02
      4.00000000000000E-01
      2.00000000000000E-01   2.00000000000000E-01   0.00000000000000E+00   0.00000000000000E+00   0.00000000000000E+00
      0.00000000000000E+00   0.00000000000000E+00   1.63679108506574E-16   0.00000000000000E+00   0.00000000000000E+00
      0.00000000000000E+00   0.00000000000000E+00   7.83838312347582E-15  -5.47994923077719E-17   7.78358363116805E-15
     -4.86159327392530E-15   3.00000000000000E+02  -6.05280109526237E-07  -3.03968875782565E-16   0.00000000000000E+00
      4.00000000000000E-01   3.99939441108011E-01   0.00000000000000E+00   0.00000000000000E+00   1.51397229973665E-06
      9.95042150826923E-20   1.51397229973675E-06   2.70683968125304E-15   0.00000000000000E+00   6.05588923007944E-05
      0.00000000000000E+00   0.00000000000000E+00  -1.51397230752034E-06   2.51589792569688E-22  -1.51397230752034E-06
      1.99107448416570E-15   3.00000000000000E+02   3.00002023139870E+02   3.00007929591677E+02   2.85496332851426E+02
      3.24710913131638E+02   2.72487747459673E+03   3.00000000000000E+02   3.00001906664442E+02   3.00007929591677E+02
      4.50000000000000E-01
      2.00000000000000E-01   2.00000000000000E-01   0.00000000000000E+00   0.00000000000000E+00   0.00000000000000E+00
      0.00000000000000E+00   0.00000000000000E+00   1.49150860070548E-16   0.00000000000000E+00   0.00000000000000E+00
      0.00000000000000E+00   0.00000000000000E+00   2.00119608423925E-14   4.85064917721185E-16   2.04970257601137E-14
     -4.92704283212784E-15   3.00000000000000E+02  -7.46186046339027E-07  -7.76028447260692E-16   0.00000000000000E+00
      4.50000000000000E-01   4.49933639169393E-01   0.00000000000000E+00   0.00000000000000E+00   1.65902076517515E-06
      9.95837335478335E-20   1.65902076517525E-06   2.78710707707873E-15   0.00000000000000E+00   6.63608314269215E-05
      0.00000000000000E+00   0.00000000000000E+00  -1.65902078567228E-06   2.75645880502218E-22  -1.65902078567228E-06
      1.99078489497851E-15   3.00000000000000E+02   3.00002493850316E+02   3.00009675010448E+02   2.85095674817690E+02
      3.28708565135889E+02   2.94858758992061E+03   3.00000000000000E+02   3.00002350427101E+02   3.00009675010448E+02
      5.00000000000000E-01
      2.00000000000000E-01   2.00000000000000E-01   0.00000000000000E+00   0.00000000000000E+00   0.00000000000000E+00
      0.00000000000000E+00   0.00000000000000E+00   1.35027239954744E-16   0.00000000000000E+00   0.00000000000000E+00
      0.00000000000000E+00   0.00000000000000E+00   4.39164975176250E-14   1.39607812028532E-15   4.53125756379103E-14
     -4.99166734864264E-15   3.00000000000000E+02  -9.04683465251533E-07  -1.70325441235167E-15   0.00000000000000E+00
      5.00000000000000E-01   4.99927589626368E-01   0.00000000000000E+00   0.00000000000000E+00   1.81025934080843E-06
      9.96347290113901E-20   1.81025934080853E-06   2.86613973244265E-15   0.00000000000000E+00   7.24103754448586E-05
      0.00000000000000E+00   0.00000000000000E+00  -1.81025938612111E-06   3.00691628829656E-22  -1.81025938612111E-06
      1.99050037624524E-15   3.00000000000000E+02   3.00003023272755E+02   3.00011628860695E+02   2.84734904862511E+02
      3.32465727378482E+02   3.14771932622472E+03   3.00000000000000E+02   3.00002849571397E+02   3.00011628860695E+02
      5.50000000000000E-01
      2.00000000000000E-01   2.00000000000000E-01   0.00000000000000E+00   0.00000000000000E+00   0.00000000000000E+00
      0.00000000000000E+00   0.00000000000000E+00   1.21262273478335E-16   0.00000000000000E+00   0.00000000000000E+00
      0.00000000000000E+00   0.00000000000000E+00   8.61401641304333E-14   2.81616303392104E-15   8.89563271643543E-14
     -5.05554396762338E-15   3.00000000000000E+02  -1.08201286791740E-06  -3.34037727013187E-15   0.00000000000000E+00
      5.50000000000000E-01   5.49921269724695E-01   0.00000000000000E+00   0.00000000000000E+00   1.96825688261649E-06
      9.97423461509785E-20   1.96825688261659E-06   2.94406134377323E-15   0.00000000000000E+00   7.87302788629364E-05
      0.00000000000000E+00   0.00000000000000E+00  -1.96825697157292E-06   3.27147939688532E-22  -1.96825697157292E-06
      1.99022035037180E-15   3.00000000000000E+02   3.00003615546139E+02   3.00013813292743E+02   2.84412069401469E+02
      3.36080677650219E+02   3.33002559306427E+03   3.00000000000000E+02   3.00003408002325E+02   3.00013813292743E+02
      6.00000000000000E-01
      2.00000000000000E-01   2.00000000000000E-01   0.00000000000000E+00   0.00000000000000E+00   0.00000000000000E+00
      0.00000000000000E+00   0.00000000000000E+00   1.07817663521884E-16   0.00000000000000E+00   0.00000000000000E+00
      0.00000000000000E+00   0.00000000000000E+00   1.54950502783224E-13   4.88611450923873E-15   1.59836617292463E-13
     -5.11872193575847E-15   3.00000000000000E+02  -1.27907210257136E-06  -6.00870826194984E-15   0.00000000000000E+00
      6.00000000000000E-01   5.99914687156374E-01   0.00000000000000E+00   0.00000000000000E+00   2.13282109064520E-06
      9.98242817234135E-20   2.13282109064530E-06   3.02096001742116E-15   0.00000000000000E+00   8.53128500192522E-05
      0.00000000000000E+00   0.00000000000000E+00  -2.13282125048192E-06   3.54352007024621E-22  -2.13282125048192E-06
      1.98994425481543E-15   3.00000000000000E+02   3.00004273660559E+02   3.00016241836950E+02   2.84135094275857E+02
      3.39606680638260E+02   3.49983577435526E+03   3.00000000000000E+02   3.00004028544182E+02   3.00016241836950E+02
      6.50000000000000E-01
      2.00000000000000E-01   2.00000000000000E-01   0.00000000000000E+00   0.00000000000000E+00   0.00000000000000E+00
      0.00000000000000E+00   0.00000000000000E+00   9.46604018664894E-17   0.00000000000000E+00   0.00000000000000E+00
      0.00000000000000E+00   0.00000000000000E+00   2.60136664643563E-13   7.76186590619192E-15   2.67898530549755E-13
     -5.18122890781514E-15   3.00000000000000E+02  -1.49701970702803E-06  -1.00876455142413E-14   0.00000000000000E+00
      6.50000000000000E-01   6.49907831188380E-01   0.00000000000000E+00   0.00000000000000E+00   2.30422029050015E-06
      9.99088089023736E-20   2.30422029050025E-06   3.09689678665930E-15   0.00000000000000E+00   9.21688223359135E-05
      0.00000000000000E+00   0.00000000000000E+00  -2.30422055839879E-06   3.83015885393014E-22  -2.30422055839879E-06
      1.98967171928933E-15   3.00000000000000E+02   3.00005001480051E+02   3.00018918961755E+02   2.83905055033028E+02
      3.43064723026887E+02   3.65989531323153E+03   3.00000000000000E+02   3.00004714843695E+02   3.00018918961755E+02
      7.00000000000000E-01
      2.00000000000000E-01   2.00000000000000E-01   0.00000000000000E+00   0.00000000000000E+00   0.00000000000000E+00
      0.00000000000000E+00   0.00000000000000E+00   8.17607191636345E-17   0.00000000000000E+00   0.00000000000000E+00
      0.00000000000000E+00   0.00000000000000E+00   4.12817466053614E-13   1.15645808507606E-14   4.24382046904374E-13
     -5.24307661668210E-15   3.00000000000000E+02  -1.73640759087027E-06  -1.60083335523255E-14   0.00000000000000E+00
      7.00000000000000E-01   6.99900728845591E-01   0.00000000000000E+00   0.00000000000000E+00   2.48177886023399E-06
      9.99911982188008E-20   2.48177886023409E-06   3.17191368605013E-15   0.00000000000000E+00   9.92711713846465E-05
      0.00000000000000E+00   0.00000000000000E+00  -2.48177928461614E-06   4.12335418411405E-22  -2.48177928461614E-06
      1.98940221146834E-15   3.00000000000000E+02   3.00005800837615E+02   3.00021849437384E+02   2.83732845927613E+02
      3.46488512099403E+02   3.81256424268508E+03   3.00000000000000E+02   3.00005468635350E+02   3.00021849437384E+02
      7.50000000000000E-01
      2.00000000000000E-01   2.00000000000000E-01   0.00000000000000E+00   0.00000000000000E+00   0.00000000000000E+00
      0.00000000000000E+00   0.00000000000000E+00   6.90918860615175E-17   0.00000000000000E+00   0.00000000000000E+00
      0.00000000000000E+00   0.00000000000000E+00   6.23561182610139E-13   1.64019537644296E-14   6.39963136374569E-13
     -5.30426510853291E-15   3.00000000000000E+02  -1.99178657966970E-06  -2.41806413400934E-14   0.00000000000000E+00
      7.50000000000000E-01   7.49893720252348E-01   0.00000000000000E+00   0.00000000000000E+00   2.65699369129580E-06
      9.52592789504330E-20   2.65699369129590E-06   3.24603942541536E-15   0.00000000000000E+00   1.06279773250369E-04
      0.00000000000000E+00   0.00000000000000E+00  -2.65699433125904E-06   4.41520874536334E-22  -2.65699433125904E-06
      1.98913379705607E-15   3.00000000000000E+02   3.00006653519066E+02   3.00024963804023E+02   2.83618583351940E+02
      3.49891550597209E+02   3.95963593249761E+03   3.00000000000000E+02   3.00006272753991E+02   3.00024963804023E+02
      8.00000000000000E-01
      2.00000000000000E-01   2.00000000000000E-01   0.00000000000000E+00   0.00000000000000E+00   0.00000000000000E+00
      0.00000000000000E+00   0.00000000000000E+00   5.66337974818925E-17   0.00000000000000E+00   0.00000000000000E+00
      0.00000000000000E+00   0.00000000000000E+00   9.06188038104861E-13   2.19440650908988E-14   9.28132103195760E-13
     -5.36478533407502E-15   3.00000000000000E+02  -2.27166578531079E-06  -3.51404403344257E-14   0.00000000000000E+00
      8.00000000000000E-01   7.99886362042612E-01   0.00000000000000E+00   0.00000000000000E+00   2.84094893471051E-06
      1.00139540789641E-19   2.84094893471061E-06   3.31928329294986E-15   0.00000000000000E+00   1.13637994513650E-04
      0.00000000000000E+00   0.00000000000000E+00  -2.84094986284272E-06   4.72288244461074E-22  -2.84094986284272E-06
      1.98886824364327E-15   3.00000000000000E+02   3.00007587943108E+02   3.00028377089046E+02   2.83514869912170E+02
      3.53269819126674E+02   4.10382596613768E+03   3.00000000000000E+02   3.00007153996021E+02   3.00028377089046E+02
      8.50000000000000E-01
      2.00000000000000E-01   2.00000000000000E-01   0.00000000000000E+00   0.00000000000000E+00   0.00000000000000E+00
      0.00000000000000E+00   0.00000000000000E+00   4.43686626706443E-17   0.00000000000000E+00   0.00000000000000E+00
      0.00000000000000E+00   0.00000000000000E+00   1.27425024737758E-12   2.87602213176824E-14   1.30301046869527E-12
     -5.42462275279420E-15   3.00000000000000E+02  -2.57804988794054E-06  -4.94132794690983E-14   0.00000000000000E+00
      8.50000000000000E-01   8.49878621500712E-01   0.00000000000000E+00   0.00000000000000E+00   3.03446248220001E-06
      1.00244436737036E-19   3.03446248220011E-06   3.39164867180497E-15   0.00000000000000E+00   1.21378551408415E-04
      0.00000000000000E+00   0.00000000000000E+00  -3.03446378521058E-06   5.04321725450348E-22  -3.03446378521058E-06
      1.98860541831859E-15   3.00000000000000E+02   3.00008610794484E+02   3.00032106201908E+02   2.83446843058507E+02
      3.56613102282708E+02   4.25017028256106E+03   3.00000000000000E+02   3.00008118671024E+02   3.00032106201908E+02
      9.00000000000000E-01
      2.00000000000000E-01   2.00000000000000E-01   0.00000000000000E+00   0.00000000000000E+00   0.00000000000000E+00
      0.00000000000000E+00   0.00000000000000E+00   3.22812630293653E-17   0.00000000000000E+00   0.00000000000000E+00
      0.00000000000000E+00   0.00000000000000E+00   1.73976101402409E-12   3.65512282185370E-14   1.77631224224263E-12
     -5.48375906577179E-15   3.00000000000000E+02  -2.91146478339921E-06  -6.74696908191852E-14   0.00000000000000E+00
      9.00000000000000E-01   8.99870538954281E-01   0.00000000000000E+00   0.00000000000000E+00   3.23652614309325E-06
      9.90669289689699E-20   3.23652614309335E-06   3.46313290346134E-15   0.00000000000000E+00   1.29461116776155E-04
      0.00000000000000E+00   0.00000000000000E+00  -3.23652791940559E-06   5.38224365673808E-22  -3.23652791940559E-06
      1.98834489928113E-15   3.00000000000000E+02   3.00009723817560E+02   3.00036153054186E+02   2.83412323939012E+02
      3.59926494698835E+02   4.39194589308763E+03   3.00000000000000E+02   3.00009168431304E+02   3.00036153054186E+02
      9.50000000000000E-01
      2.00000000000000E-01   2.00000000000000E-01   0.00000000000000E+00   0.00000000000000E+00   0.00000000000000E+00
      0.00000000000000E+00   0.00000000000000E+00   2.03585138384938E-17   0.00000000000000E+00   0.00000000000000E+00
      0.00000000000000E+00   0.00000000000000E+00   2.31646786517253E-12   4.51880899586609E-14   2.36165595513119E-12
     -5.54217443697689E-15   3.00000000000000E+02  -3.27310822319010E-06  -8.98320726153119E-14   0.00000000000000E+00
      9.50000000000000E-01   9.49862117928244E-01   0.00000000000000E+00   0.00000000000000E+00   3.44705179399248E-06
      9.56615279971814E-20   3.44705179399258E-06   3.53372944866032E-15   0.00000000000000E+00   1.37882166225694E-04
      0.00000000000000E+00   0.00000000000000E+00  -3.44705415564854E-06   5.72878688303179E-22  -3.44705415564854E-06
      1.98808647447806E-15   3.00000000000000E+02   3.00010931000604E+02   3.00040530554290E+02   2.83412842677762E+02
      3.63226551769541E+02   4.52942950173803E+03   3.00000000000000E+02   3.00010307045104E+02   3.00040530554290E+02
      1.00000000000000E+00
      2.00000000000000E-01   2.00000000000000E-01   0.00000000000000E+00   0.00000000000000E+00   0.00000000000000E+00
      0.00000000000000E+00   0.00000000000000E+00   8.58878988959313E-18   0.00000000000000E+00   0.00000000000000E+00
      0.00000000000000E+00   0.00000000000000E+00   3.01862000300031E-12   5.35759490042202E-14   3.07219595200453E-12
     -5.59984964134716E-15   3.00000000000000E+02  -3.66432896645976E-06  -1.17059759566806E-13   0.00000000000000E+00
      1.00000000000000E+00   9.99853355195920E-01   0.00000000000000E+00   0.00000000000000E+00   3.66612010206345E-06
      9.85975211753126E-20   3.66612010206355E-06   3.60343086277101E-15   0.00000000000000E+00   1.46644926970150E-04
      0.00000000000000E+00   0.00000000000000E+00  -3.66612317425951E-06   6.09231361658629E-22  -3.66612317425951E-06
      1.98782998868651E-15   3.00000000000000E+02   3.00012236835090E+02   3.00045254599853E+02   2.83448914398605E+02
      3.66520415402449E+02   4.66289458519861E+03   3.00000000000000E+02   3.00011538755876E+02   3.00045254599853E+02
}
