DF-ISE text

Info {
  version   = 1.0
  type      = xyplot
  datasets  = [
    "time"
    "gate OuterVoltage" "gate InnerVoltage" "gate QuasiFermiPotential" "gate DisplacementCurrent" "gate eCurrent"
    "gate hCurrent" "gate TotalCurrent" "gate Charge" "substrate OuterVoltage" "substrate InnerVoltage"
    "substrate QuasiFermiPotential" "substrate DisplacementCurrent" "substrate eCurrent" "substrate hCurrent" "substrate TotalCurrent"
    "substrate Charge" "substrate Temperature" "substrate lHeatFlux" "substrate eHeatFlux" "substrate hHeatFlux"
    "drain OuterVoltage" "drain InnerVoltage" "drain QuasiFermiPotential" "drain DisplacementCurrent" "drain eCurrent"
    "drain hCurrent" "drain TotalCurrent" "drain Charge" "source OuterVoltage" "source InnerVoltage"
    "source QuasiFermiPotential" "source DisplacementCurrent" "source eCurrent" "source hCurrent" "source TotalCurrent"
    "source Charge" "lTmin" "lTave" "lTmax" "eTmin"
    "eTave" "eTmax" "hTmin" "hTave" "hTmax" ]
  functions = [
    Time
    OuterVoltage InnerVoltage QuasiFermiPotential DisplacementCurrent eCurrent
    hCurrent TotalCurrent Charge OuterVoltage InnerVoltage
    QuasiFermiPotential DisplacementCurrent eCurrent hCurrent TotalCurrent
    Charge Temperature lHeatFlux eHeatFlux hHeatFlux
    OuterVoltage InnerVoltage QuasiFermiPotential DisplacementCurrent eCurrent
    hCurrent TotalCurrent Charge OuterVoltage InnerVoltage
    QuasiFermiPotential DisplacementCurrent eCurrent hCurrent TotalCurrent
    Charge MinTemperature AveTemperature MaxTemperature MinTemperature
    AveTemperature MaxTemperature MinTemperature AveTemperature MaxTemperature ]
}

Data {
      0.00000000000000E+00
      6.00000000000000E-01   6.00000000000000E-01   0.00000000000000E+00   0.00000000000000E+00   0.00000000000000E+00
      0.00000000000000E+00   0.00000000000000E+00   7.46261322892384E-16   0.00000000000000E+00   0.00000000000000E+00
      0.00000000000000E+00   0.00000000000000E+00  -8.66300230361356E-19   3.11429478583019E-27  -8.66300227247062E-19
     -4.41374970739312E-15   3.00000000000000E+02   0.00000000000000E+00  -5.69647328584111E-35   0.00000000000000E+00
      0.00000000000000E+00   0.00000000000000E+00   0.00000000000000E+00   0.00000000000000E+00   8.64619346172027E-19
     -2.30315886139712E-27   8.64619343868868E-19   1.83374419225034E-15   0.00000000000000E+00   0.00000000000000E+00
      0.00000000000000E+00   0.00000000000000E+00   1.68088419134658E-21  -8.13154221155900E-28   1.68088337819236E-21
      1.83374419225038E-15   3.00000000000000E+02   2.99999999999994E+02   3.00000000000000E+02   3.00000000000000E+02
      2.99999999999994E+02   3.00000000000000E+02   3.00000000000000E+02   2.99999999999994E+02   3.00000000000000E+02
      5.00000000000000E-02
      6.00000000000000E-01   6.00000000000000E-01   0.00000000000000E+00   0.00000000000000E+00   0.00000000000000E+00
      0.00000000000000E+00   0.00000000000000E+00   7.16464216354486E-16   0.00000000000000E+00   0.00000000000000E+00
      0.00000000000000E+00   0.00000000000000E+00  -4.33139236256101E-17  -2.43211057658909E-16  -2.86524981284519E-16
     -4.48060274185491E-15   3.00000000000000E+02  -2.83163951159481E-06   2.55062155545695E-21   0.00000000000000E+00
      5.00000000000000E-02   4.74664619595605E-02   0.00000000000000E+00   0.00000000000000E+00   6.33384510109946E-05
      8.74204795610459E-20   6.33384510109946E-05   1.92116466025598E-15   0.00000000000000E+00   2.53353804042964E-03
      0.00000000000000E+00   0.00000000000000E+00  -6.33384510107083E-05   1.00156053939129E-20  -6.33384510107083E-05
      1.84297386524446E-15   3.00000000000000E+02   3.00009461436529E+02   3.00030570083673E+02   2.86788224867597E+02
      3.00056768125192E+02   3.22641882977244E+02   3.00000000000000E+02   3.00008919274919E+02   3.00030570083673E+02
      1.00000000000000E-01
      6.00000000000000E-01   6.00000000000000E-01   0.00000000000000E+00   0.00000000000000E+00   0.00000000000000E+00
      0.00000000000000E+00   0.00000000000000E+00   6.87728737504867E-16   0.00000000000000E+00   0.00000000000000E+00
      0.00000000000000E+00   0.00000000000000E+00  -1.44335698115773E-17  -4.04614455624009E-16  -4.19048025435586E-16
     -4.54692712837503E-15   3.00000000000000E+02  -1.03782660153254E-05   3.11680122264642E-21   0.00000000000000E+00
      1.00000000000000E-01   9.54079734647400E-02   0.00000000000000E+00   0.00000000000000E+00   1.14800663381511E-04
      9.95079725646775E-20   1.14800663381511E-04   2.00880200956818E-15   0.00000000000000E+00   4.59202653524407E-03
      0.00000000000000E+00   0.00000000000000E+00  -1.14800663381092E-04   1.75025292461391E-20  -1.14800663381092E-04
      1.85039638130200E-15   3.00000000000000E+02   3.00034687833457E+02   3.00104840963164E+02   2.67192190329370E+02
      3.00170990674145E+02   3.59334865404147E+02   3.00000000000000E+02   3.00032695027910E+02   3.00104840963164E+02
      1.50000000000000E-01
      6.00000000000000E-01   6.00000000000000E-01   0.00000000000000E+00   0.00000000000000E+00   0.00000000000000E+00
      0.00000000000000E+00   0.00000000000000E+00   6.60484774851641E-16   0.00000000000000E+00   0.00000000000000E+00
      0.00000000000000E+00   0.00000000000000E+00   8.78217984639948E-18  -5.14134339155306E-16  -5.05352159308907E-16
     -4.61309179326305E-15   3.00000000000000E+02  -2.11813735271843E-05   3.15143372626136E-21   0.00000000000000E+00
      1.50000000000000E-01   1.43819147337525E-01   0.00000000000000E+00   0.00000000000000E+00   1.54521316561886E-04
      1.01482118563226E-19   1.54521316561887E-04   2.09658312797230E-15   0.00000000000000E+00   6.18085266245483E-03
      0.00000000000000E+00   0.00000000000000E+00  -1.54521316561381E-04   2.30009404733947E-20  -1.54521316561381E-04
      1.85602389043908E-15   3.00000000000000E+02   3.00070814672304E+02   3.00217790465169E+02   2.74019147379451E+02
      3.00578967573324E+02   6.34701048296495E+02   3.00000000000000E+02   3.00066738563841E+02   3.00217790465169E+02
      2.00000000000000E-01
      6.00000000000000E-01   6.00000000000000E-01   0.00000000000000E+00   0.00000000000000E+00   0.00000000000000E+00
      0.00000000000000E+00   0.00000000000000E+00   6.34861238980439E-16   0.00000000000000E+00   0.00000000000000E+00
      0.00000000000000E+00   0.00000000000000E+00  -3.08003763441191E-19  -5.49938280289992E-16  -5.50246284053433E-16
     -4.67915656513187E-15   3.00000000000000E+02  -3.40653588433074E-05  -1.76821167971040E-20   0.00000000000000E+00
      2.00000000000000E-01   1.92616879519853E-01   0.00000000000000E+00   0.00000000000000E+00   1.84578012003665E-04
      1.02777294481769E-19   1.84578012003666E-04   2.18412203889939E-15   0.00000000000000E+00   7.38312048012476E-03
      0.00000000000000E+00   0.00000000000000E+00  -1.84578012003116E-04   2.70846837656932E-20  -1.84578012003116E-04
      1.86017328725204E-15   3.00000000000000E+02   3.00113913295914E+02   3.00358261060416E+02   2.94058467642884E+02
      3.03409856269441E+02   1.10544526458877E+03   3.00000000000000E+02   3.00107348673104E+02   3.00358261060416E+02
      2.50000000000000E-01
      6.00000000000000E-01   6.00000000000000E-01   0.00000000000000E+00   0.00000000000000E+00   0.00000000000000E+00
      0.00000000000000E+00   0.00000000000000E+00   6.10833026603763E-16   0.00000000000000E+00   0.00000000000000E+00
      0.00000000000000E+00   0.00000000000000E+00   1.83305449870431E-17  -4.81174102097101E-16  -4.62843557110058E-16
     -4.74500525246956E-15   3.00000000000000E+02  -4.82642052583794E-05  -1.10785909602274E-18   0.00000000000000E+00
      2.50000000000000E-01   2.41701354869479E-01   0.00000000000000E+00   0.00000000000000E+00   2.07466128263028E-04
      1.04183661475148E-19   2.07466128263028E-04   2.27094258950031E-15   0.00000000000000E+00   8.29864513050322E-03
      0.00000000000000E+00   0.00000000000000E+00  -2.07466128262565E-04   3.02187920678651E-20  -2.07466128262565E-04
      1.86322963636546E-15   3.00000000000000E+02   3.00161419152568E+02   3.00516422137253E+02   2.97185386424463E+02
      3.09685858542307E+02   1.61236345968276E+03   3.00000000000000E+02   3.00152112063991E+02   3.00516422137253E+02
      3.00000000000000E-01
      6.00000000000000E-01   6.00000000000000E-01   0.00000000000000E+00   0.00000000000000E+00   0.00000000000000E+00
      0.00000000000000E+00   0.00000000000000E+00   5.88282819439985E-16   0.00000000000000E+00   0.00000000000000E+00
      0.00000000000000E+00   0.00000000000000E+00   5.57197552958029E-16  -7.45522613375201E-17   4.82645291620509E-16
     -4.81048436532283E-15   3.00000000000000E+02  -6.33399560839651E-05  -2.16443020279098E-17   0.00000000000000E+00
      3.00000000000000E-01   2.90988019329892E-01   0.00000000000000E+00   0.00000000000000E+00   2.25299516752693E-04
      1.05671438833586E-19   2.25299516752693E-04   2.35668253243393E-15   0.00000000000000E+00   9.01198067012712E-03
      0.00000000000000E+00   0.00000000000000E+00  -2.25299516753176E-04   3.27301519537382E-20  -2.25299516753176E-04
      1.86551901344892E-15   3.00000000000000E+02   3.00211864300909E+02   3.00686348574176E+02   2.97413383677297E+02
      3.15497313206507E+02   2.01080738737571E+03   3.00000000000000E+02   3.00199648510040E+02   3.00686348574176E+02
      3.50000000000000E-01
      6.00000000000000E-01   6.00000000000000E-01   0.00000000000000E+00   0.00000000000000E+00   0.00000000000000E+00
      0.00000000000000E+00   0.00000000000000E+00   5.67063503516448E-16   0.00000000000000E+00   0.00000000000000E+00
      0.00000000000000E+00   0.00000000000000E+00   5.23421965430258E-15   9.93654708525823E-16   6.22787436282840E-15
     -4.87548028257218E-15   3.00000000000000E+02  -7.90572878876508E-05  -2.03645513463042E-16   0.00000000000000E+00
      3.50000000000000E-01   3.40415262797819E-01   0.00000000000000E+00   0.00000000000000E+00   2.39618430054533E-04
      1.07227028676911E-19   2.39618430054533E-04   2.44114001309904E-15   0.00000000000000E+00   9.58473720243114E-03
      0.00000000000000E+00   0.00000000000000E+00  -2.39618430060761E-04   3.48343464084425E-20  -2.39618430060761E-04
      1.86727676595664E-15   3.00000000000000E+02   3.00264459815758E+02   3.00864744991515E+02   2.97570263852057E+02
      3.20858750151758E+02   2.31473718421240E+03   3.00000000000000E+02   3.00249216533369E+02   3.00864744991515E+02
      4.00000000000000E-01
      6.00000000000000E-01   6.00000000000000E-01   0.00000000000000E+00   0.00000000000000E+00   0.00000000000000E+00
      0.00000000000000E+00   0.00000000000000E+00   5.47025433467921E-16   0.00000000000000E+00   0.00000000000000E+00
      0.00000000000000E+00   0.00000000000000E+00   2.97883239659006E-14   3.29377457925980E-15   3.30820985451604E-14
     -4.93993286898243E-15   3.00000000000000E+02  -9.52918945767772E-05  -1.15578401490178E-15   0.00000000000000E+00
      4.00000000000000E-01   3.89940906366787E-01   0.00000000000000E+00   0.00000000000000E+00   2.51477340830322E-04
      1.08844612477677E-19   2.51477340830322E-04   2.52424459330950E-15   0.00000000000000E+00   1.00590936345363E-02
      0.00000000000000E+00   0.00000000000000E+00  -2.51477340863405E-04   3.66698491046174E-20  -2.51477340863405E-04
      1.86866284220503E-15   3.00000000000000E+02   3.00318789497504E+02   3.01049712708518E+02   2.97799898370161E+02
      3.26097724701168E+02   2.58202452263725E+03   3.00000000000000E+02   3.00300424893667E+02   3.01049712708518E+02
      4.50000000000000E-01
      6.00000000000000E-01   6.00000000000000E-01   0.00000000000000E+00   0.00000000000000E+00   0.00000000000000E+00
      0.00000000000000E+00   0.00000000000000E+00   5.28027356289545E-16   0.00000000000000E+00   0.00000000000000E+00
      0.00000000000000E+00   0.00000000000000E+00   1.18438114503667E-13   8.77524075475161E-15   1.27213355258419E-13
     -5.00382050750089E-15   3.00000000000000E+02  -1.11975414035648E-04  -4.59346629822440E-15   0.00000000000000E+00
      4.50000000000000E-01   4.39536799261415E-01   0.00000000000000E+00   0.00000000000000E+00   2.61580018464611E-04
      1.10524697823571E-19   2.61580018464611E-04   2.60600856863893E-15   0.00000000000000E+00   1.04632007436732E-02
      0.00000000000000E+00   0.00000000000000E+00  -2.61580018591824E-04   3.83260741030086E-20  -2.61580018591824E-04
      1.86978458257242E-15   3.00000000000000E+02   3.00374625169627E+02   3.01240438824211E+02   2.97845745708688E+02
      3.30782976973219E+02   2.79642427726474E+03   3.00000000000000E+02   3.00353058929085E+02   3.01240438824211E+02
      5.00000000000000E-01
      6.00000000000000E-01   6.00000000000000E-01   0.00000000000000E+00   0.00000000000000E+00   0.00000000000000E+00
      0.00000000000000E+00   0.00000000000000E+00   5.09942734843065E-16   0.00000000000000E+00   0.00000000000000E+00
      0.00000000000000E+00   0.00000000000000E+00   3.63724307915493E-13   1.94891880084977E-14   3.83213495923991E-13
     -5.06714108135919E-15   3.00000000000000E+02  -1.29068080755818E-04  -1.41070826164655E-14   0.00000000000000E+00
      5.00000000000000E-01   4.89184055694412E-01   0.00000000000000E+00   0.00000000000000E+00   2.70398607639700E-04
      1.12267074697407E-19   2.70398607639700E-04   2.68648474680687E-15   0.00000000000000E+00   1.08159443209163E-02
      0.00000000000000E+00   0.00000000000000E+00  -2.70398608022914E-04   3.98607373411935E-20  -2.70398608022914E-04
      1.87071359970929E-15   3.00000000000000E+02   3.00431834839117E+02   3.01435381838514E+02   2.97908602970599E+02
      3.35112165972878E+02   3.00976951400526E+03   3.00000000000000E+02   3.00406994271782E+02   3.01435381838514E+02
      5.50000000000000E-01
      6.00000000000000E-01   6.00000000000000E-01   0.00000000000000E+00   0.00000000000000E+00   0.00000000000000E+00
      0.00000000000000E+00   0.00000000000000E+00   4.92660855091104E-16   0.00000000000000E+00   0.00000000000000E+00
      0.00000000000000E+00   0.00000000000000E+00   9.22333439614133E-13   3.86264064022970E-14   9.60959846016431E-13
     -5.12989815478923E-15   3.00000000000000E+02  -1.46545366013886E-04  -3.57750939839142E-14   0.00000000000000E+00
      5.50000000000000E-01   5.38869775457571E-01   0.00000000000000E+00   0.00000000000000E+00   2.78255613560748E-04
      1.14021458228196E-19   2.78255613560748E-04   2.76573933206585E-15   0.00000000000000E+00   1.11302245808689E-02
      0.00000000000000E+00   0.00000000000000E+00  -2.78255614521708E-04   4.13134540018182E-20  -2.78255614521708E-04
      1.87149796763230E-15   3.00000000000000E+02   3.00490337775169E+02   3.01636024462537E+02   2.97988327933614E+02
      3.39224875597794E+02   3.18806713564187E+03   3.00000000000000E+02   3.00462154672727E+02   3.01636024462537E+02
      6.00000000000000E-01
      6.00000000000000E-01   6.00000000000000E-01   0.00000000000000E+00   0.00000000000000E+00   0.00000000000000E+00
      0.00000000000000E+00   0.00000000000000E+00   4.76084383811791E-16   0.00000000000000E+00   0.00000000000000E+00
      0.00000000000000E+00   0.00000000000000E+00   2.02199879797149E-12   7.20710331715494E-14   2.09406983114304E-12
     -5.19209334066995E-15   3.00000000000000E+02  -1.64389607149327E-04  -7.84265316340093E-14   0.00000000000000E+00
      6.00000000000000E-01   5.88585066445051E-01   0.00000000000000E+00   0.00000000000000E+00   2.85373338873712E-04
      1.15560875167698E-19   2.85373338873712E-04   2.84383786681657E-15   0.00000000000000E+00   1.14149336387112E-02
      0.00000000000000E+00   0.00000000000000E+00  -2.85373340967782E-04   4.27113472916693E-20  -2.85373340967782E-04
      1.87217109004158E-15   3.00000000000000E+02   3.00550076282094E+02   3.01840345049892E+02   2.98086831191938E+02
      3.43190729549012E+02   3.33948218078262E+03   3.00000000000000E+02   3.00518485542055E+02   3.01840345049892E+02
      6.50000000000000E-01
      6.00000000000000E-01   6.00000000000000E-01   0.00000000000000E+00   0.00000000000000E+00   0.00000000000000E+00
      0.00000000000000E+00   0.00000000000000E+00   4.60128856669106E-16   0.00000000000000E+00   0.00000000000000E+00
      0.00000000000000E+00   0.00000000000000E+00   3.95803565704884E-12   1.25714422737606E-13   4.08375007978644E-12
     -5.25372333330804E-15   3.00000000000000E+02  -1.82587402549825E-04  -1.53523346756886E-13   0.00000000000000E+00
      6.50000000000000E-01   6.38323618172412E-01   0.00000000000000E+00   0.00000000000000E+00   2.91909545689694E-04
      1.17871818041331E-19   2.91909545689694E-04   2.92083800818836E-15   0.00000000000000E+00   1.16763819909377E-02
      0.00000000000000E+00   0.00000000000000E+00  -2.91909549773445E-04   4.40726543827991E-20  -2.91909549773444E-04
      1.87275646845056E-15   3.00000000000000E+02   3.00611006930028E+02   3.02048024464357E+02   2.98208244974584E+02
      3.47042525789788E+02   3.47720605706499E+03   3.00000000000000E+02   3.00575945720415E+02   3.02048024464357E+02
      7.00000000000000E-01
      6.00000000000000E-01   6.00000000000000E-01   0.00000000000000E+00   0.00000000000000E+00   0.00000000000000E+00
      0.00000000000000E+00   0.00000000000000E+00   4.44721233319161E-16   0.00000000000000E+00   0.00000000000000E+00
      0.00000000000000E+00   0.00000000000000E+00   7.08281886474066E-12   2.04380024094378E-13   7.28719888883503E-12
     -5.31477922289548E-15   3.00000000000000E+02  -2.01128121698858E-04  -2.74733067701785E-13   0.00000000000000E+00
      7.00000000000000E-01   6.88080835690611E-01   0.00000000000000E+00   0.00000000000000E+00   2.97979107734726E-04
      1.19881004807089E-19   2.97979107734726E-04   2.99678699719604E-15   0.00000000000000E+00   1.19191646008764E-02
      0.00000000000000E+00   0.00000000000000E+00  -2.97979115021925E-04   4.54110119834113E-20  -2.97979115021925E-04
      1.87327099238028E-15   3.00000000000000E+02   3.00673095528694E+02   3.02259826538090E+02   2.98357969801094E+02
      3.50770239712476E+02   3.61501252296611E+03   3.00000000000000E+02   3.00634502769428E+02   3.02259826538090E+02
      7.50000000000000E-01
      6.00000000000000E-01   6.00000000000000E-01   0.00000000000000E+00   0.00000000000000E+00   0.00000000000000E+00
      0.00000000000000E+00   0.00000000000000E+00   4.29798323301477E-16   0.00000000000000E+00   0.00000000000000E+00
      0.00000000000000E+00   0.00000000000000E+00   1.18068749860071E-11   3.14076504895421E-13   1.21209514909025E-11
     -5.37524685140674E-15   3.00000000000000E+02  -2.20002605126918E-04  -4.57296331185409E-13   0.00000000000000E+00
      7.50000000000000E-01   7.37853319992312E-01   0.00000000000000E+00   0.00000000000000E+00   3.03667000070592E-04
      1.18046486333756E-19   3.03667000070592E-04   3.07172131402107E-15   0.00000000000000E+00   1.21466804918160E-02
      0.00000000000000E+00   0.00000000000000E+00  -3.03667012191544E-04   4.67376057454890E-20  -3.03667012191544E-04
      1.87372721408420E-15   3.00000000000000E+02   3.00736312732008E+02   3.02475929219039E+02   2.98543313994434E+02
      3.54385645277499E+02   3.75030106059554E+03   3.00000000000000E+02   3.00694128856905E+02   3.02475929219039E+02
      8.00000000000000E-01
      6.00000000000000E-01   6.00000000000000E-01   0.00000000000000E+00   0.00000000000000E+00   0.00000000000000E+00
      0.00000000000000E+00   0.00000000000000E+00   4.15306828018522E-16   0.00000000000000E+00   0.00000000000000E+00
      0.00000000000000E+00   0.00000000000000E+00   1.84911527227324E-11   4.61353514709296E-13   1.89525062374417E-11
     -5.43510771110518E-15   3.00000000000000E+02  -2.39202359432939E-04  -7.17287102832759E-13   0.00000000000000E+00
      8.00000000000000E-01   7.87638523027262E-01   0.00000000000000E+00   0.00000000000000E+00   3.09036924318463E-04
      1.24096303969801E-19   3.09036924318463E-04   3.14566639551712E-15   0.00000000000000E+00   1.23614777308405E-02
      0.00000000000000E+00   0.00000000000000E+00  -3.09036943270970E-04   4.80603662033018E-20  -3.09036943270970E-04
      1.87413448756954E-15   3.00000000000000E+02   3.00800631366393E+02   3.02695072343889E+02   2.98771439312697E+02
      3.57917031823367E+02   3.88496343625827E+03   3.00000000000000E+02   3.00754798224913E+02   3.02695072343889E+02
      8.50000000000000E-01
      6.00000000000000E-01   6.00000000000000E-01   0.00000000000000E+00   0.00000000000000E+00   0.00000000000000E+00
      0.00000000000000E+00   0.00000000000000E+00   4.01203461482458E-16   0.00000000000000E+00   0.00000000000000E+00
      0.00000000000000E+00   0.00000000000000E+00   2.76120721455215E-11   6.51834731438825E-13   2.82639068769603E-11
     -5.49434043543763E-15   3.00000000000000E+02  -2.58717370416456E-04  -1.07112130480344E-12   0.00000000000000E+00
      8.50000000000000E-01   8.37434597618929E-01   0.00000000000000E+00   0.00000000000000E+00   3.14135059526788E-04
      1.26311605927706E-19   3.14135059526789E-04   3.21863732365111E-15   0.00000000000000E+00   1.25654035116282E-02
      0.00000000000000E+00   0.00000000000000E+00  -3.14135087790696E-04   4.93839986374357E-20  -3.14135087790696E-04
      1.87449965030408E-15   3.00000000000000E+02   3.00866019168782E+02   3.02917334492542E+02   2.99050928246232E+02
      3.61376090541469E+02   4.02467993347318E+03   3.00000000000000E+02   3.00816480305352E+02   3.02917334492542E+02
      9.00000000000000E-01
      6.00000000000000E-01   6.00000000000000E-01   0.00000000000000E+00   0.00000000000000E+00   0.00000000000000E+00
      0.00000000000000E+00   0.00000000000000E+00   3.87450881070674E-16   0.00000000000000E+00   0.00000000000000E+00
      0.00000000000000E+00   0.00000000000000E+00   3.95806361840506E-11   8.91366253537277E-13   4.04720024375879E-11
     -5.55292201861143E-15   3.00000000000000E+02  -2.78537295911922E-04  -1.53544385135577E-12   0.00000000000000E+00
      9.00000000000000E-01   8.87240139037047E-01   0.00000000000000E+00   0.00000000000000E+00   3.18996524073835E-04
      1.28601706441442E-19   3.18996524073835E-04   3.29064320127912E-15   0.00000000000000E+00   1.27598625818339E-02
      0.00000000000000E+00   0.00000000000000E+00  -3.18996564545838E-04   5.07145003821416E-20  -3.18996564545838E-04
      1.87482793626165E-15   3.00000000000000E+02   3.00932442763524E+02   3.03143036348458E+02   2.99389824694479E+02
      3.64761697443409E+02   4.16420629868274E+03   3.00000000000000E+02   3.00879143477264E+02   3.03143036348458E+02
      9.50000000000000E-01
      6.00000000000000E-01   6.00000000000000E-01   0.00000000000000E+00   0.00000000000000E+00   0.00000000000000E+00
      0.00000000000000E+00   0.00000000000000E+00   3.74014298820963E-16   0.00000000000000E+00   0.00000000000000E+00
      0.00000000000000E+00   0.00000000000000E+00   5.48062562031641E-11   1.18595911923224E-12   5.59922153223963E-11
     -5.61082791241653E-15   3.00000000000000E+02  -2.98655492388995E-04  -2.12614657702486E-12   0.00000000000000E+00
      9.50000000000000E-01   9.37053884454581E-01   0.00000000000000E+00   0.00000000000000E+00   3.23652888635478E-04
      1.30965972184834E-19   3.23652888635479E-04   3.36168967640016E-15   0.00000000000000E+00   1.29461177851078E-02
      0.00000000000000E+00   0.00000000000000E+00  -3.23652944627695E-04   5.20555407236489E-20  -3.23652944627695E-04
      1.87512393719534E-15   3.00000000000000E+02   3.00999881024140E+02   3.03371363639242E+02   2.99655901767617E+02
      3.68078687656658E+02   4.30576633102807E+03   3.00000000000000E+02   3.00942767743021E+02   3.03371363639242E+02
      1.00000000000000E+00
      6.00000000000000E-01   6.00000000000000E-01   0.00000000000000E+00   0.00000000000000E+00   0.00000000000000E+00
      0.00000000000000E+00   0.00000000000000E+00   3.60863829569869E-16   0.00000000000000E+00   0.00000000000000E+00
      0.00000000000000E+00   0.00000000000000E+00   7.36742832090818E-11   1.54079922765469E-12   7.52150824367364E-11
     -5.66803490651044E-15   3.00000000000000E+02  -3.19065244172825E-04  -2.85819574637234E-12   0.00000000000000E+00
      1.00000000000000E+00   9.86874836126746E-01   0.00000000000000E+00   0.00000000000000E+00   3.28129096831486E-04
      1.32494288953203E-19   3.28129096831486E-04   3.43177979343879E-15   0.00000000000000E+00   1.31251668818637E-02
      0.00000000000000E+00   0.00000000000000E+00  -3.28129172046570E-04   5.34099029934652E-20  -3.28129172046570E-04
      1.87539128350180E-15   3.00000000000000E+02   3.01068312519920E+02   3.03602193024994E+02   2.99856735841535E+02
      3.71344175112468E+02   4.44478344376947E+03   3.00000000000000E+02   3.01007332844741E+02   3.03602193024994E+02
}
