DF-ISE text

Info {
  version   = 1.0
  type      = xyplot
  datasets  = [
    "time"
    "gate OuterVoltage" "gate InnerVoltage" "gate QuasiFermiPotential" "gate DisplacementCurrent" "gate eCurrent"
    "gate hCurrent" "gate TotalCurrent" "gate Charge" "substrate OuterVoltage" "substrate InnerVoltage"
    "substrate QuasiFermiPotential" "substrate DisplacementCurrent" "substrate eCurrent" "substrate hCurrent" "substrate TotalCurrent"
    "substrate Charge" "substrate Temperature" "substrate lHeatFlux" "substrate eHeatFlux" "substrate hHeatFlux"
    "drain OuterVoltage" "drain InnerVoltage" "drain QuasiFermiPotential" "drain DisplacementCurrent" "drain eCurrent"
    "drain hCurrent" "drain TotalCurrent" "drain Charge" "source OuterVoltage" "source InnerVoltage"
    "source QuasiFermiPotential" "source DisplacementCurrent" "source eCurrent" "source hCurrent" "source TotalCurrent"
    "source Charge" "lTmin" "lTave" "lTmax" "eTmin"
    "eTave" "eTmax" "hTmin" "hTave" "hTmax" ]
  functions = [
    Time
    OuterVoltage InnerVoltage QuasiFermiPotential DisplacementCurrent eCurrent
    hCurrent TotalCurrent Charge OuterVoltage InnerVoltage
    QuasiFermiPotential DisplacementCurrent eCurrent hCurrent TotalCurrent
    Charge Temperature lHeatFlux eHeatFlux hHeatFlux
    OuterVoltage InnerVoltage QuasiFermiPotential DisplacementCurrent eCurrent
    hCurrent TotalCurrent Charge OuterVoltage InnerVoltage
    QuasiFermiPotential DisplacementCurrent eCurrent hCurrent TotalCurrent
    Charge MinTemperature AveTemperature MaxTemperature MinTemperature
    AveTemperature MaxTemperature MinTemperature AveTemperature MaxTemperature ]
}

Data {
      0.00000000000000E+00
      4.00000000000000E-01   4.00000000000000E-01   0.00000000000000E+00   0.00000000000000E+00   0.00000000000000E+00
      0.00000000000000E+00   0.00000000000000E+00   5.09482355481065E-16   0.00000000000000E+00   0.00000000000000E+00
      0.00000000000000E+00   0.00000000000000E+00   1.58654971487082E-18  -4.28199015639950E-27   1.58654971058883E-18
     -4.33322084118771E-15   3.00000000000000E+02   0.00000000000000E+00  -8.66854630454081E-35   0.00000000000000E+00
      0.00000000000000E+00   0.00000000000000E+00   0.00000000000000E+00   0.00000000000000E+00  -8.14142500282184E-19
      1.19499614156184E-27  -8.14142499087188E-19   1.91186924285331E-15   0.00000000000000E+00   0.00000000000000E+00
      0.00000000000000E+00   0.00000000000000E+00  -7.72407214588620E-19   3.08698045895583E-27  -7.72407211501640E-19
      1.91186924285332E-15   3.00000000000000E+02   2.99999999999994E+02   3.00000000000000E+02   3.00000000000000E+02
      2.99999999999994E+02   3.00000000000000E+02   3.00000000000000E+02   2.99999999999994E+02   3.00000000000000E+02
      5.00000000000000E-02
      4.00000000000000E-01   4.00000000000000E-01   0.00000000000000E+00   0.00000000000000E+00   0.00000000000000E+00
      0.00000000000000E+00   0.00000000000000E+00   4.82716310935407E-16   0.00000000000000E+00   0.00000000000000E+00
      0.00000000000000E+00   0.00000000000000E+00  -2.61070651699669E-18  -2.38261016295060E-16  -2.40871722812056E-16
     -4.40402979933648E-15   3.00000000000000E+02  -1.11087326494407E-06   2.41559901685223E-21   0.00000000000000E+00
      5.00000000000000E-02   4.90754416549384E-02   0.00000000000000E+00   0.00000000000000E+00   2.31139586265423E-05
      8.80557211019206E-20   2.31139586265424E-05   2.00640235349812E-15   0.00000000000000E+00   9.24558345052089E-04
      0.00000000000000E+00   0.00000000000000E+00  -2.31139586263016E-05   3.77360077471363E-21  -2.31139586263016E-05
      1.91491113490297E-15   3.00000000000000E+02   3.00003717716624E+02   3.00013900235373E+02   2.74606719216764E+02
      3.00052659410765E+02   3.31698857947186E+02   3.00000000000000E+02   3.00003501118751E+02   3.00013900235373E+02
      1.00000000000000E-01
      4.00000000000000E-01   4.00000000000000E-01   0.00000000000000E+00   0.00000000000000E+00   0.00000000000000E+00
      0.00000000000000E+00   0.00000000000000E+00   4.58421537798877E-16   0.00000000000000E+00   0.00000000000000E+00
      0.00000000000000E+00   0.00000000000000E+00   4.32394399705777E-18  -3.88683417030574E-16  -3.84359473033516E-16
     -4.47573487062263E-15   3.00000000000000E+02  -3.48566725365842E-06   2.79987158648780E-21   0.00000000000000E+00
      1.00000000000000E-01   9.85623034688345E-02   0.00000000000000E+00   0.00000000000000E+00   3.59424132791340E-05
      9.88083488923006E-20   3.59424132791341E-05   2.10089819373830E-15   0.00000000000000E+00   1.43769653114996E-03
      0.00000000000000E+00   0.00000000000000E+00  -3.59424132787498E-05   5.81649626406104E-21  -3.59424132787498E-05
      1.91641513908544E-15   3.00000000000000E+02   3.00011666256994E+02   3.00042041256397E+02   2.68998796900762E+02
      3.00214586245402E+02   4.43941519137585E+02   3.00000000000000E+02   3.00010986120046E+02   3.00042041256397E+02
      1.50000000000000E-01
      4.00000000000000E-01   4.00000000000000E-01   0.00000000000000E+00   0.00000000000000E+00   0.00000000000000E+00
      0.00000000000000E+00   0.00000000000000E+00   4.36094512058203E-16   0.00000000000000E+00   0.00000000000000E+00
      0.00000000000000E+00   0.00000000000000E+00  -1.72355073064557E-20  -4.75651945696747E-16  -4.75669181204054E-16
     -4.54741121564373E-15   3.00000000000000E+02  -6.45563833301521E-06  -4.37218195466303E-21   0.00000000000000E+00
      1.50000000000000E-01   1.48234779064392E-01   0.00000000000000E+00   0.00000000000000E+00   4.41305233902027E-05
      9.98237965375840E-20   4.41305233902028E-05   2.19406650324182E-15   0.00000000000000E+00   1.76522093558906E-03
      0.00000000000000E+00   0.00000000000000E+00  -4.41305233897272E-05   7.10923489912445E-21  -4.41305233897272E-05
      1.91725020034372E-15   3.00000000000000E+02   3.00021605711308E+02   3.00077315556865E+02   2.93736556213371E+02
      3.02036860953431E+02   9.51159332223652E+02   3.00000000000000E+02   3.00020346800882E+02   3.00077315556865E+02
      2.00000000000000E-01
      4.00000000000000E-01   4.00000000000000E-01   0.00000000000000E+00   0.00000000000000E+00   0.00000000000000E+00
      0.00000000000000E+00   0.00000000000000E+00   4.15300702423948E-16   0.00000000000000E+00   0.00000000000000E+00
      0.00000000000000E+00   0.00000000000000E+00   1.49140240565620E-17  -4.60890431067129E-16  -4.45976407010567E-16
     -4.61829573681175E-15   3.00000000000000E+02  -9.84237760054348E-06  -5.57984010971715E-19   0.00000000000000E+00
      2.00000000000000E-01   1.97988903961717E-01   0.00000000000000E+00   0.00000000000000E+00   5.02774009570750E-05
      1.00201809343121E-19   5.02774009570751E-05   2.28519142074910E-15   0.00000000000000E+00   2.01109603826521E-03
      0.00000000000000E+00   0.00000000000000E+00  -5.02774009566292E-05   8.07921366760838E-21  -5.02774009566292E-05
      1.91780361363869E-15   3.00000000000000E+02   3.00032937358823E+02   3.00117598500457E+02   2.95318996512856E+02
      3.07544980085981E+02   1.48069975920676E+03   3.00000000000000E+02   3.00031020394318E+02   3.00117598500457E+02
      2.50000000000000E-01
      4.00000000000000E-01   4.00000000000000E-01   0.00000000000000E+00   0.00000000000000E+00   0.00000000000000E+00
      0.00000000000000E+00   0.00000000000000E+00   3.95733504045592E-16   0.00000000000000E+00   0.00000000000000E+00
      0.00000000000000E+00   0.00000000000000E+00   3.25448971895370E-16  -3.04001957262714E-16   2.14470146326562E-17
     -4.68801089683216E-15   3.00000000000000E+02  -1.35547509955896E-05  -1.21302520923133E-17   0.00000000000000E+00
      2.50000000000000E-01   2.47790010796475E-01   0.00000000000000E+00   0.00000000000000E+00   5.52497300881408E-05
      1.00609504135989E-19   5.52497300881409E-05   2.37408234482994E-15   0.00000000000000E+00   2.20998920352569E-03
      0.00000000000000E+00   0.00000000000000E+00  -5.52497300881624E-05   8.86753570646457E-21  -5.52497300881624E-05
      1.91819504795667E-15   3.00000000000000E+02   3.00045355543761E+02   3.00161733082556E+02   2.96281284166989E+02
      3.13402124996158E+02   1.90583250444369E+03   3.00000000000000E+02   3.00042719533464E+02   3.00161733082556E+02
      3.00000000000000E-01
      4.00000000000000E-01   4.00000000000000E-01   0.00000000000000E+00   0.00000000000000E+00   0.00000000000000E+00
      0.00000000000000E+00   0.00000000000000E+00   3.77213074913015E-16   0.00000000000000E+00   0.00000000000000E+00
      0.00000000000000E+00   0.00000000000000E+00   2.88669884558380E-15   2.72720023490009E-16   3.15941886907381E-15
     -4.75649863399339E-15   3.00000000000000E+02  -1.75792261585984E-05  -1.11945029671658E-16   0.00000000000000E+00
      3.00000000000000E-01   2.97616076557113E-01   0.00000000000000E+00   0.00000000000000E+00   5.95980860721719E-05
      1.01044452277902E-19   5.95980860721720E-05   2.46078035727995E-15   0.00000000000000E+00   2.38392344301324E-03
      0.00000000000000E+00   0.00000000000000E+00  -5.95980860753315E-05   9.55972752500639E-21  -5.95980860753315E-05
      1.91850520180042E-15   3.00000000000000E+02   3.00058814690293E+02   3.00209500695024E+02   2.97334757055970E+02
      3.18397830896681E+02   2.23765670740765E+03   3.00000000000000E+02   3.00055401568515E+02   3.00209500695024E+02
      3.50000000000000E-01
      4.00000000000000E-01   4.00000000000000E-01   0.00000000000000E+00   0.00000000000000E+00   0.00000000000000E+00
      0.00000000000000E+00   0.00000000000000E+00   3.59591869487448E-16   0.00000000000000E+00   0.00000000000000E+00
      0.00000000000000E+00   0.00000000000000E+00   1.54986176315404E-14   1.48324416043128E-15   1.69818617919717E-14
     -4.82382364542907E-15   3.00000000000000E+02  -2.18861813893213E-05  -6.01024441095221E-16   0.00000000000000E+00
      3.50000000000000E-01   3.47459722687381E-01   0.00000000000000E+00   0.00000000000000E+00   6.35069328154684E-05
      1.01502216501546E-19   6.35069328154685E-05   2.54547585203577E-15   0.00000000000000E+00   2.54027731329798E-03
      0.00000000000000E+00   0.00000000000000E+00  -6.35069328324505E-05   1.01872824403842E-20  -6.35069328324505E-05
      1.91875592390583E-15   3.00000000000000E+02   3.00073215733578E+02   3.00260600996043E+02   2.98494576924956E+02
      3.23287695195662E+02   2.50663887908862E+03   3.00000000000000E+02   3.00068973259986E+02   3.00260600996043E+02
      4.00000000000000E-01
      4.00000000000000E-01   4.00000000000000E-01   0.00000000000000E+00   0.00000000000000E+00   0.00000000000000E+00
      0.00000000000000E+00   0.00000000000000E+00   3.42768698641401E-16   0.00000000000000E+00   0.00000000000000E+00
      0.00000000000000E+00   0.00000000000000E+00   5.82324098941069E-14   3.98440135920646E-15   6.22168112533134E-14
     -4.89011964679099E-15   3.00000000000000E+02  -2.64800079791507E-05  -2.25849967937604E-15   0.00000000000000E+00
      4.00000000000000E-01   3.97313803244077E-01   0.00000000000000E+00   0.00000000000000E+00   6.71549188980782E-05
      1.01984622363892E-19   6.71549188980783E-05   2.62837479237570E-15   0.00000000000000E+00   2.68619675841210E-03
      0.00000000000000E+00   0.00000000000000E+00  -6.71549189602952E-05   1.07778342389704E-20  -6.71549189602952E-05
      1.91897615577393E-15   3.00000000000000E+02   3.00088573496312E+02   3.00314857737117E+02   2.99154986607553E+02
      3.27849478065621E+02   2.73408840926591E+03   3.00000000000000E+02   3.00083448604385E+02   3.00314857737117E+02
      4.50000000000000E-01
      4.00000000000000E-01   4.00000000000000E-01   0.00000000000000E+00   0.00000000000000E+00   0.00000000000000E+00
      0.00000000000000E+00   0.00000000000000E+00   3.26642195383374E-16   0.00000000000000E+00   0.00000000000000E+00
      0.00000000000000E+00   0.00000000000000E+00   1.70442638940612E-13   9.13873836357090E-15   1.79581377304183E-13
     -4.95550133532431E-15   3.00000000000000E+02  -3.13483071388798E-05  -6.60967745708709E-15   0.00000000000000E+00
      4.50000000000000E-01   4.47175921972901E-01   0.00000000000000E+00   0.00000000000000E+00   7.06019506774791E-05
      1.02492637120349E-19   7.06019506774792E-05   2.70968700754479E-15   0.00000000000000E+00   2.82407803428205E-03
      0.00000000000000E+00   0.00000000000000E+00  -7.06019508570609E-05   1.13404685349654E-20  -7.06019508570608E-05
      1.91917213239612E-15   3.00000000000000E+02   3.00104846740463E+02   3.00372385376917E+02   2.99178984113395E+02
      3.32009538610613E+02   2.93952972401090E+03   3.00000000000000E+02   3.00098788723025E+02   3.00372385376917E+02
      5.00000000000000E-01
      4.00000000000000E-01   4.00000000000000E-01   0.00000000000000E+00   0.00000000000000E+00   0.00000000000000E+00
      0.00000000000000E+00   0.00000000000000E+00   3.11125596055839E-16   0.00000000000000E+00   0.00000000000000E+00
      0.00000000000000E+00   0.00000000000000E+00   4.15372944910545E-13   1.80260924970549E-14   4.33399037407600E-13
     -5.02006476711671E-15   3.00000000000000E+02  -3.64827625612315E-05  -1.61081985468536E-14   0.00000000000000E+00
      5.00000000000000E-01   4.97044317062526E-01   0.00000000000000E+00   0.00000000000000E+00   7.38920734368661E-05
      1.03025516788638E-19   7.38920734368662E-05   2.78959042316261E-15   0.00000000000000E+00   2.95568295481083E-03
      0.00000000000000E+00   0.00000000000000E+00  -7.38920738702652E-05   1.18836308671545E-20  -7.38920738702652E-05
      1.91934874789822E-15   3.00000000000000E+02   3.00122007904112E+02   3.00433117055857E+02   2.99175630185611E+02
      3.35948665228627E+02   3.12517722221235E+03   3.00000000000000E+02   3.00114967613556E+02   3.00433117055857E+02
      5.50000000000000E-01
      4.00000000000000E-01   4.00000000000000E-01   0.00000000000000E+00   0.00000000000000E+00   0.00000000000000E+00
      0.00000000000000E+00   0.00000000000000E+00   2.96145434985399E-16   0.00000000000000E+00   0.00000000000000E+00
      0.00000000000000E+00   0.00000000000000E+00   8.81154539974900E-13   3.20408739621562E-14   9.13195413937056E-13
     -5.08388072482298E-15   3.00000000000000E+02  -4.18766257705088E-05  -3.41717772052157E-14   0.00000000000000E+00
      5.50000000000000E-01   5.46917757441863E-01   0.00000000000000E+00   0.00000000000000E+00   7.70560639534161E-05
      1.02974647279012E-19   7.70560639534162E-05   2.86822578200187E-15   0.00000000000000E+00   3.08224259466450E-03
      0.00000000000000E+00   0.00000000000000E+00  -7.70560648666120E-05   1.24106429056288E-20  -7.70560648666120E-05
      1.91950950783567E-15   3.00000000000000E+02   3.00140034690513E+02   3.00496671359859E+02   2.99179756728999E+02
      3.39737726687524E+02   3.30272544882642E+03   3.00000000000000E+02   3.00131964227602E+02   3.00496671359859E+02
      6.00000000000000E-01
      4.00000000000000E-01   4.00000000000000E-01   0.00000000000000E+00   0.00000000000000E+00   0.00000000000000E+00
      0.00000000000000E+00   0.00000000000000E+00   2.81638914723912E-16   0.00000000000000E+00   0.00000000000000E+00
      0.00000000000000E+00   0.00000000000000E+00   1.67916462642301E-12   5.35431921733409E-14   1.73270781859635E-12
     -5.14699658268330E-15   3.00000000000000E+02  -4.75237811495839E-05  -6.51188370756917E-14   0.00000000000000E+00
      6.00000000000000E-01   5.96795383647028E-01   0.00000000000000E+00   0.00000000000000E+00   8.01154088243135E-05
      1.04081084351470E-19   8.01154088243136E-05   2.94570082652413E-15   0.00000000000000E+00   3.20461642228056E-03
      0.00000000000000E+00   0.00000000000000E+00  -8.01154105570216E-05   1.29265498072469E-20  -8.01154105570216E-05
      1.91965684143526E-15   3.00000000000000E+02   3.00158906952850E+02   3.00562936302070E+02   2.99192966128793E+02
      3.43428410309482E+02   3.45935179433442E+03   3.00000000000000E+02   3.00149759529400E+02   3.00562936302070E+02
      6.50000000000000E-01
      4.00000000000000E-01   4.00000000000000E-01   0.00000000000000E+00   0.00000000000000E+00   0.00000000000000E+00
      0.00000000000000E+00   0.00000000000000E+00   2.67550101314575E-16   0.00000000000000E+00   0.00000000000000E+00
      0.00000000000000E+00   0.00000000000000E+00   2.94136998468660E-12   8.51363875382319E-14   3.02650637222483E-12
     -5.20943992821586E-15   3.00000000000000E+02  -5.34196531603055E-05  -1.14068945334185E-13   0.00000000000000E+00
      6.50000000000000E-01   6.46676506400825E-01   0.00000000000000E+00   0.00000000000000E+00   8.30873399793825E-05
      1.04772376753361E-19   8.30873399793826E-05   3.02209716567844E-15   0.00000000000000E+00   3.32349372023540E-03
      0.00000000000000E+00   0.00000000000000E+00  -8.30873430058894E-05   1.34330391993236E-20  -8.30873430058893E-05
      1.91979266122288E-15   3.00000000000000E+02   3.00178609651440E+02   3.00632080622521E+02   2.99217306944004E+02
      3.47047776728635E+02   3.60424793290058E+03   3.00000000000000E+02   3.00168339324505E+02   3.00632080622521E+02
      7.00000000000000E-01
      4.00000000000000E-01   4.00000000000000E-01   0.00000000000000E+00   0.00000000000000E+00   0.00000000000000E+00
      0.00000000000000E+00   0.00000000000000E+00   2.53829244840778E-16   0.00000000000000E+00   0.00000000000000E+00
      0.00000000000000E+00   0.00000000000000E+00   4.81451187234563E-12   1.29059808921076E-13   4.94357168126671E-12
     -5.27122277219305E-15   3.00000000000000E+02  -5.95611226784426E-05  -1.86712829869815E-13   0.00000000000000E+00
      7.00000000000000E-01   6.96560550241351E-01   0.00000000000000E+00   0.00000000000000E+00   8.59862439662344E-05
      1.05403552929498E-19   8.59862439662345E-05   3.09747500589584E-15   0.00000000000000E+00   3.43944995639152E-03
      0.00000000000000E+00   0.00000000000000E+00  -8.59862489098062E-05   1.39329797526992E-20  -8.59862489098062E-05
      1.91991852145641E-15   3.00000000000000E+02   3.00199132527108E+02   3.00704359854127E+02   2.99255331088044E+02
      3.50586759408081E+02   3.74381000070125E+03   3.00000000000000E+02   3.00187693977221E+02   3.00704359854127E+02
      7.50000000000000E-01
      4.00000000000000E-01   4.00000000000000E-01   0.00000000000000E+00   0.00000000000000E+00   0.00000000000000E+00
      0.00000000000000E+00   0.00000000000000E+00   2.40437252719004E-16   0.00000000000000E+00   0.00000000000000E+00
      0.00000000000000E+00   0.00000000000000E+00   7.45665314885660E-12   1.87776965703032E-13   7.64443011455963E-12
     -5.33234593749109E-15   3.00000000000000E+02  -6.59442959628760E-05  -2.89181418382175E-13   0.00000000000000E+00
      7.50000000000000E-01   7.46447136724497E-01   0.00000000000000E+00   0.00000000000000E+00   8.88215818875838E-05
      1.06054759330782E-19   8.88215818875839E-05   3.17187328769710E-15   0.00000000000000E+00   3.55286358128092E-03
      0.00000000000000E+00   0.00000000000000E+00  -8.88215895320142E-05   1.44286063305170E-20  -8.88215895320141E-05
      1.92003539707501E-15   3.00000000000000E+02   3.00220462800623E+02   3.00779225812744E+02   2.99309883221123E+02
      3.54047928142489E+02   3.88105784742165E+03   3.00000000000000E+02   3.00207811443758E+02   3.00779225812744E+02
      8.00000000000000E-01
      4.00000000000000E-01   4.00000000000000E-01   0.00000000000000E+00   0.00000000000000E+00   0.00000000000000E+00
      0.00000000000000E+00   0.00000000000000E+00   2.27337934326403E-16   0.00000000000000E+00   0.00000000000000E+00
      0.00000000000000E+00   0.00000000000000E+00   1.10301298695216E-11   2.63447572181886E-13   1.12935774417035E-11
     -5.39280164217571E-15   3.00000000000000E+02  -7.25665412139347E-05  -4.27770101528037E-13   0.00000000000000E+00
      8.00000000000000E-01   7.96335918522021E-01   0.00000000000000E+00   0.00000000000000E+00   9.16020369494701E-05
      1.06743367609970E-19   9.16020369494702E-05   3.24531943177320E-15   0.00000000000000E+00   3.66408192972152E-03
      0.00000000000000E+00   0.00000000000000E+00  -9.16020482430476E-05   1.49212280331073E-20  -9.16020482430476E-05
      1.92014427607609E-15   3.00000000000000E+02   3.00242591833706E+02   3.00856616052100E+02   2.99383914788244E+02
      3.57451508565169E+02   4.01689718654574E+03   3.00000000000000E+02   3.00228683629622E+02   3.00856616052100E+02
      8.50000000000000E-01
      4.00000000000000E-01   4.00000000000000E-01   0.00000000000000E+00   0.00000000000000E+00   0.00000000000000E+00
      0.00000000000000E+00   0.00000000000000E+00   2.14503313827779E-16   0.00000000000000E+00   0.00000000000000E+00
      0.00000000000000E+00   0.00000000000000E+00   1.57032794124187E-11   3.58044150270502E-13   1.60613235626892E-11
     -5.45257630362421E-15   3.00000000000000E+02  -7.94248631268865E-05  -6.09008115790241E-13   0.00000000000000E+00
      8.50000000000000E-01   8.46226648084981E-01   0.00000000000000E+00   0.00000000000000E+00   9.43337978754149E-05
      4.59589316206438E-19   9.43337978754154E-05   3.31782733518574E-15   0.00000000000000E+00   3.77335255747073E-03
      0.00000000000000E+00   0.00000000000000E+00  -9.43338139367391E-05   1.54113421582791E-20  -9.43338139367391E-05
      1.92024565461064E-15   3.00000000000000E+02   3.00265509840207E+02   3.00936686643131E+02   2.99424583150825E+02
      3.60811320255133E+02   4.15126346864211E+03   3.00000000000000E+02   3.00250301327493E+02   3.00936686643131E+02
      9.00000000000000E-01
      4.00000000000000E-01   4.00000000000000E-01   0.00000000000000E+00   0.00000000000000E+00   0.00000000000000E+00
      0.00000000000000E+00   0.00000000000000E+00   2.01905904477022E-16   0.00000000000000E+00   0.00000000000000E+00
      0.00000000000000E+00   0.00000000000000E+00   2.16369122352796E-11   4.73671070456306E-13   2.21105833057359E-11
     -5.51165241135501E-15   3.00000000000000E+02  -8.65179380335002E-05  -8.39144575286166E-13   0.00000000000000E+00
      9.00000000000000E-01   8.96119057693447E-01   0.00000000000000E+00   0.00000000000000E+00   9.70235576640043E-05
      1.04395999872220E-19   9.70235576640044E-05   3.38940637845288E-15   0.00000000000000E+00   3.88094319098331E-03
      0.00000000000000E+00   0.00000000000000E+00  -9.70235797745878E-05   1.59012896642769E-20  -9.70235797745878E-05
      1.92034012842508E-15   3.00000000000000E+02   3.00289212518223E+02   3.01019400838540E+02   2.99467376844096E+02
      3.64124386755164E+02   4.28392307314169E+03   3.00000000000000E+02   3.00272660559507E+02   3.01019400838540E+02
      9.50000000000000E-01
      4.00000000000000E-01   4.00000000000000E-01   0.00000000000000E+00   0.00000000000000E+00   0.00000000000000E+00
      0.00000000000000E+00   0.00000000000000E+00   1.89524345508643E-16   0.00000000000000E+00   0.00000000000000E+00
      0.00000000000000E+00   0.00000000000000E+00   2.89770078935393E-11   6.12397230078392E-13   2.95894051236177E-11
     -5.57001019155327E-15   3.00000000000000E+02  -9.38432195147962E-05  -1.12381860369151E-12   0.00000000000000E+00
      9.50000000000000E-01   9.46012988836381E-01   0.00000000000000E+00   0.00000000000000E+00   9.96752790905021E-05
      1.08635393751263E-19   9.96752790905022E-05   3.46005759124675E-15   0.00000000000000E+00   3.98701234719652E-03
      0.00000000000000E+00   0.00000000000000E+00  -9.96753086799074E-05   1.63907121654504E-20  -9.96753086799073E-05
      1.92042825479780E-15   3.00000000000000E+02   3.00313691565700E+02   3.01104518384603E+02   2.99517542830731E+02
      3.67385294954647E+02   4.42012381209382E+03   3.00000000000000E+02   3.00295753533565E+02   3.01104518384603E+02
      1.00000000000000E+00
      4.00000000000000E-01   4.00000000000000E-01   0.00000000000000E+00   0.00000000000000E+00   0.00000000000000E+00
      0.00000000000000E+00   0.00000000000000E+00   1.77342478541948E-16   0.00000000000000E+00   0.00000000000000E+00
      0.00000000000000E+00   0.00000000000000E+00   1.35032347938387E-11   7.77258230829692E-13   1.42804930246684E-11
     -5.62763176875509E-15   3.00000000000000E+02  -1.01397468892701E-04  -1.46992494577416E-12   0.00000000000000E+00
      1.00000000000000E+00   9.95908343058510E-01   0.00000000000000E+00   0.00000000000000E+00   1.02291442646515E-04
      1.24716944202280E-19   1.02291442646515E-04   3.52977908800753E-15   0.00000000000000E+00   4.09165848861054E-03
      0.00000000000000E+00   0.00000000000000E+00  -1.02291456927008E-04   1.68810132200061E-20  -1.02291456927008E-04
      1.92051020220560E-15   3.00000000000000E+02   3.00338936404177E+02   3.01191958573160E+02   2.99575818761115E+02
      3.70602734342655E+02   4.55812594742298E+03   3.00000000000000E+02   3.00319570296385E+02   3.01191958573160E+02
}
