DF-ISE text

Info {
  version   = 1.0
  type      = xyplot
  datasets  = [
    "time"
    "gate OuterVoltage" "gate InnerVoltage" "gate QuasiFermiPotential" "gate DisplacementCurrent" "gate eCurrent"
    "gate hCurrent" "gate TotalCurrent" "gate Charge" "substrate OuterVoltage" "substrate InnerVoltage"
    "substrate QuasiFermiPotential" "substrate DisplacementCurrent" "substrate eCurrent" "substrate hCurrent" "substrate TotalCurrent"
    "substrate Charge" "drain OuterVoltage" "drain InnerVoltage" "drain QuasiFermiPotential" "drain DisplacementCurrent"
    "drain eCurrent" "drain hCurrent" "drain TotalCurrent" "drain Charge" "source OuterVoltage"
    "source InnerVoltage" "source QuasiFermiPotential" "source DisplacementCurrent" "source eCurrent" "source hCurrent"
    "source TotalCurrent" "source Charge" "lTmin" "lTave" "lTmax"
    "eTmin" "eTave" "eTmax" "hTmin" "hTave"
    "hTmax" ]
  functions = [
    Time
    OuterVoltage InnerVoltage QuasiFermiPotential DisplacementCurrent eCurrent
    hCurrent TotalCurrent Charge OuterVoltage InnerVoltage
    QuasiFermiPotential DisplacementCurrent eCurrent hCurrent TotalCurrent
    Charge OuterVoltage InnerVoltage QuasiFermiPotential DisplacementCurrent
    eCurrent hCurrent TotalCurrent Charge OuterVoltage
    InnerVoltage QuasiFermiPotential DisplacementCurrent eCurrent hCurrent
    TotalCurrent Charge MinTemperature AveTemperature MaxTemperature
    MinTemperature AveTemperature MaxTemperature MinTemperature AveTemperature
    MaxTemperature ]
}

Data {
      0.00000000000000E+00
      0.00000000000000E+00   0.00000000000000E+00   0.00000000000000E+00   0.00000000000000E+00   0.00000000000000E+00
      0.00000000000000E+00   0.00000000000000E+00   1.56726564820486E-16   0.00000000000000E+00   0.00000000000000E+00
      0.00000000000000E+00   0.00000000000000E+00  -3.24622921530606E-20  -1.03858110526073E-15  -1.03861356755288E-15
     -5.66699872792131E-15   5.00000000000000E-02   4.99999999999556E-02   0.00000000000000E+00   0.00000000000000E+00
      1.10951299223579E-15   6.72243891715007E-20   1.10958021662497E-15   2.81249032533333E-15   0.00000000000000E+00
      2.84718685343333E-15   0.00000000000000E+00   0.00000000000000E+00  -7.09666490759036E-17   3.81629029933227E-27
     -7.09666490720873E-17   2.69778183776750E-15   3.00000000000000E+02   2.99999999999999E+02   3.00000000000000E+02
      2.76691008603981E+02   3.00043655671915E+02   3.90005186525538E+02   3.00000000000000E+02   2.99999999999999E+02
      3.00000000000000E+02
      3.33333333333333E-02
      4.00000000000000E-02   4.00000000000000E-02   0.00000000000000E+00   0.00000000000000E+00   0.00000000000000E+00
      0.00000000000000E+00   0.00000000000000E+00   1.78244711620691E-16   0.00000000000000E+00   0.00000000000000E+00
      0.00000000000000E+00   0.00000000000000E+00  -3.24771390507478E-20  -1.03874730354884E-15  -1.03877978068789E-15
     -5.67181846593902E-15   5.00000000000000E-02   4.99999999999530E-02   0.00000000000000E+00   0.00000000000000E+00
      1.17535030516735E-15   6.72243195845276E-20   1.17541752948693E-15   2.80419141344289E-15   0.00000000000000E+00
      5.51068423245161E-15   0.00000000000000E+00   0.00000000000000E+00  -1.36637748790449E-16  -8.59361613495920E-27
     -1.36637748799043E-16   2.68938234087544E-15   3.00000000000000E+02   2.99999999999999E+02   3.00000000000000E+02
      2.75613808219534E+02   3.00044151182357E+02   3.95284993241922E+02   3.00000000000000E+02   2.99999999999999E+02
      3.00000000000000E+02
      6.66666666666667E-02
      8.00000000000000E-02   8.00000000000000E-02   0.00000000000000E+00   0.00000000000000E+00   0.00000000000000E+00
      0.00000000000000E+00   0.00000000000000E+00   1.99783241834413E-16   0.00000000000000E+00   0.00000000000000E+00
      0.00000000000000E+00   0.00000000000000E+00  -3.16002026219287E-20  -1.03899401194076E-15  -1.03902561214338E-15
     -5.67651714465055E-15   5.00000000000000E-02   4.99999999999478E-02   0.00000000000000E+00   0.00000000000000E+00
      1.30520773012157E-15   6.72242646705822E-20   1.30527495438624E-15   2.79582398233525E-15   0.00000000000000E+00
      1.06539895160731E-14   0.00000000000000E+00   0.00000000000000E+00  -2.66249342217636E-16  -2.52205746751659E-26
     -2.66249342242857E-16   2.68090992048089E-15   3.00000000000000E+02   2.99999999999999E+02   3.00000000000000E+02
      2.74481564260998E+02   3.00044757835869E+02   4.01194607618123E+02   3.00000000000000E+02   2.99999999999999E+02
      3.00000000000000E+02
      1.00000000000000E-01
      1.20000000000000E-01   1.20000000000000E-01   0.00000000000000E+00   0.00000000000000E+00   0.00000000000000E+00
      0.00000000000000E+00   0.00000000000000E+00   2.21348853604819E-16   0.00000000000000E+00   0.00000000000000E+00
      0.00000000000000E+00   0.00000000000000E+00  -3.20797562230198E-20  -1.03935649589769E-15  -1.03938857565391E-15
     -5.68109749380339E-15   5.00000000000000E-02   4.99999999999374E-02   0.00000000000000E+00   0.00000000000000E+00
      1.56359411108283E-15   6.72242017202162E-20   1.56366133528455E-15   2.78738614652052E-15   0.00000000000000E+00
      2.09406000833161E-14   0.00000000000000E+00   0.00000000000000E+00  -5.24272759620060E-16  -1.05763463104705E-26
     -5.24272759630636E-16   2.67236249367804E-15   3.00000000000000E+02   2.99999999999999E+02   3.00000000000000E+02
      2.73315004278517E+02   3.00045497718878E+02   4.07470260024443E+02   3.00000000000000E+02   2.99999999999999E+02
      3.00000000000000E+02
      1.33333333333333E-01
      1.60000000000000E-01   1.60000000000000E-01   0.00000000000000E+00   0.00000000000000E+00   0.00000000000000E+00
      0.00000000000000E+00   0.00000000000000E+00   2.42948040934870E-16   0.00000000000000E+00   0.00000000000000E+00
      0.00000000000000E+00   0.00000000000000E+00  -3.24568620992818E-20  -1.03980131602156E-15  -1.03983377288366E-15
     -5.68556202407365E-15   5.00000000000000E-02   4.99999999999168E-02   0.00000000000000E+00   0.00000000000000E+00
      2.08168949375614E-15   6.72241367582845E-20   2.08175671789290E-15   2.77887588996543E-15   0.00000000000000E+00
      4.16975106922171E-14   0.00000000000000E+00   0.00000000000000E+00  -1.04192294500587E-15  -3.36669685085888E-27
     -1.04192294500924E-15   2.66373809317335E-15   3.00000000000000E+02   2.99999999999999E+02   3.00000000000000E+02
      2.72138932724818E+02   3.00046396689057E+02   4.13986697242650E+02   3.00000000000000E+02   2.99999999999999E+02
      3.00000000000000E+02
      1.66666666666667E-01
      2.00000000000000E-01   2.00000000000000E-01   0.00000000000000E+00   0.00000000000000E+00   0.00000000000000E+00
      0.00000000000000E+00   0.00000000000000E+00   2.64586990372200E-16   0.00000000000000E+00   0.00000000000000E+00
      0.00000000000000E+00   0.00000000000000E+00   1.48368091240690E-18  -1.04023297061382E-15  -1.03874928970141E-15
     -5.68991317635098E-15   5.00000000000000E-02   4.99999999998749E-02   0.00000000000000E+00   0.00000000000000E+00
      3.12761620175535E-15   6.72208162786293E-20   3.12768342257163E-15   2.77029120351050E-15   0.00000000000000E+00
      8.34868661216418E-14   0.00000000000000E+00   0.00000000000000E+00  -2.08893412046293E-15  -1.24072929037635E-23
     -2.08893413287022E-15   2.65503498246829E-15   3.00000000000000E+02   2.99999999999999E+02   3.00000000000000E+02
      2.70981731635204E+02   3.00047485742700E+02   4.20591506185288E+02   3.00000000000000E+02   2.99999999999999E+02
      3.00000000000000E+02
      2.00000000000000E-01
      2.40000000000000E-01   2.40000000000000E-01   0.00000000000000E+00   0.00000000000000E+00   0.00000000000000E+00
      0.00000000000000E+00   0.00000000000000E+00   2.86271492706589E-16   0.00000000000000E+00   0.00000000000000E+00
      0.00000000000000E+00   0.00000000000000E+00   3.40615920662309E-18  -1.04055956599129E-15  -1.03715340678466E-15
     -5.69415343436780E-15   5.00000000000000E-02   4.99999999997898E-02   0.00000000000000E+00   0.00000000000000E+00
      5.25281075686147E-15   6.72207277190144E-20   5.25287797758919E-15   2.76163022979569E-15   0.00000000000000E+00
      1.68535092775812E-13   0.00000000000000E+00   0.00000000000000E+00  -4.21572455940815E-15  -1.13963853437935E-23
     -4.21572457080453E-15   2.64625171186553E-15   3.00000000000000E+02   2.99999999999999E+02   3.00000000000000E+02
      2.69874391727846E+02   3.00048800467957E+02   4.27114149155421E+02   3.00000000000000E+02   2.99999999999999E+02
      3.00000000000000E+02
      2.33333333333333E-01
      2.80000000000000E-01   2.80000000000000E-01   0.00000000000000E+00   0.00000000000000E+00   0.00000000000000E+00
      0.00000000000000E+00   0.00000000000000E+00   3.08006905007828E-16   0.00000000000000E+00   0.00000000000000E+00
      0.00000000000000E+00   0.00000000000000E+00   8.05434585758518E-18  -1.04076152878734E-15  -1.03270718292975E-15
     -5.69828538390258E-15   5.00000000000000E-02   4.99999999996162E-02   0.00000000000000E+00   0.00000000000000E+00
      9.59391545505838E-15   6.72208906672352E-20   9.59398267594904E-15   2.75289137432548E-15   0.00000000000000E+00
      3.42121646098037E-13   0.00000000000000E+00   0.00000000000000E+00  -8.56127548326910E-15  -9.75020192704612E-24
     -8.56127549301930E-15   2.63738710456927E-15   3.00000000000000E+02   2.99999999999999E+02   3.00000000000000E+02
      2.68848842461564E+02   3.00050380825907E+02   4.33376753726747E+02   3.00000000000000E+02   2.99999999999999E+02
      3.00000000000000E+02
      2.66666666666667E-01
      3.20000000000000E-01   3.20000000000000E-01   0.00000000000000E+00   0.00000000000000E+00   0.00000000000000E+00
      0.00000000000000E+00   0.00000000000000E+00   3.29798176573857E-16   0.00000000000000E+00   0.00000000000000E+00
      0.00000000000000E+00   0.00000000000000E+00   2.22095453275872E-17  -1.04091020381157E-15  -1.01870065848398E-15
     -5.70231171809634E-15   5.00000000000000E-02   4.99999999992598E-02   0.00000000000000E+00   0.00000000000000E+00
      1.85012951967871E-14   6.72207011892012E-20   1.85013624174883E-14   2.74407334924888E-15   0.00000000000000E+00
      6.98479226463241E-13   0.00000000000000E+00   0.00000000000000E+00  -1.74826617495155E-14  -9.48874193213885E-24
     -1.74826617590043E-14   2.62844019227361E-15   3.00000000000000E+02   2.99999999999999E+02   3.00000000000000E+02
      2.67935402518226E+02   3.00052270426567E+02   4.39204567509297E+02   3.00000000000000E+02   2.99999999999999E+02
      3.00000000000000E+02
      3.00000000000000E-01
      3.60000000000000E-01   3.60000000000000E-01   0.00000000000000E+00   0.00000000000000E+00   0.00000000000000E+00
      0.00000000000000E+00   0.00000000000000E+00   3.51649921128111E-16   0.00000000000000E+00   0.00000000000000E+00
      0.00000000000000E+00   0.00000000000000E+00   6.01690973683997E-17  -1.04111323752123E-15  -9.80944140152830E-16
     -5.70623520821122E-15   5.00000000000000E-02   4.99999999985259E-02   0.00000000000000E+00   0.00000000000000E+00
      3.68460030699428E-14   6.72206840201639E-20   3.68460702906268E-14   2.73517514155154E-15   0.00000000000000E+00
      1.43250236622579E-12   0.00000000000000E+00   0.00000000000000E+00  -3.58651261416611E-14  -8.81299646488122E-24
     -3.58651261504741E-14   2.61941014553156E-15   3.00000000000000E+02   2.99999999999999E+02   3.00000000000000E+02
      2.67158802486520E+02   3.00054497113146E+02   4.44438795202660E+02   3.00000000000000E+02   2.99999999999999E+02
      3.00000000000000E+02
      3.33333333333333E-01
      4.00000000000000E-01   4.00000000000000E-01   0.00000000000000E+00   0.00000000000000E+00   0.00000000000000E+00
      0.00000000000000E+00   0.00000000000000E+00   3.73566493292634E-16   0.00000000000000E+00   0.00000000000000E+00
      0.00000000000000E+00   0.00000000000000E+00   1.59105718428522E-16  -1.04143201438437E-15  -8.82326295955850E-16
     -5.71005867467995E-15   5.00000000000000E-02   4.99999999970096E-02   0.00000000000000E+00   0.00000000000000E+00
      7.47377484273340E-14   6.72208059447418E-20   7.47378156481400E-14   2.72619593146869E-15   0.00000000000000E+00
      2.94867528804765E-12   0.00000000000000E+00   0.00000000000000E+00  -7.38554893441824E-14  -8.00184932498582E-24
     -7.38554893521842E-14   2.61029624991863E-15   3.00000000000000E+02   2.99999999999999E+02   3.00000000000000E+02
      2.66536457490084E+02   3.00057076953359E+02   4.48944358808434E+02   3.00000000000000E+02   2.99999999999999E+02
      3.00000000000000E+02
      3.66666666666667E-01
      4.40000000000000E-01   4.40000000000000E-01   0.00000000000000E+00   0.00000000000000E+00   0.00000000000000E+00
      0.00000000000000E+00   0.00000000000000E+00   3.95552026405924E-16   0.00000000000000E+00   0.00000000000000E+00
      0.00000000000000E+00   0.00000000000000E+00   4.10051828105764E-16  -1.04183563301601E-15  -6.31783804910242E-16
     -5.71378499791668E-15   5.00000000000000E-02   4.99999999938705E-02   0.00000000000000E+00   0.00000000000000E+00
      1.53177741731056E-13   6.72207227996095E-20   1.53177808951779E-13   2.71713501341483E-15   0.00000000000000E+00
      6.08774471632650E-12   0.00000000000000E+00   0.00000000000000E+00  -1.52546025139745E-13  -7.12343414299361E-24
     -1.52546025146869E-13   2.60109795809592E-15   3.00000000000000E+02   2.99999999999999E+02   3.00000000000000E+02
      2.66087605140053E+02   3.00060025069615E+02   4.52610558810559E+02   3.00000000000000E+02   2.99999999999999E+02
      3.00000000000000E+02
      4.00000000000000E-01
      4.80000000000000E-01   4.80000000000000E-01   0.00000000000000E+00   0.00000000000000E+00   0.00000000000000E+00
      0.00000000000000E+00   0.00000000000000E+00   4.17610414149927E-16   0.00000000000000E+00   0.00000000000000E+00
      0.00000000000000E+00   0.00000000000000E+00  -3.23381876001880E-20  -1.04221510526849E-15  -1.04224744345609E-15
     -5.71741720077725E-15   5.00000000000000E-02   4.99999999873618E-02   0.00000000000000E+00   0.00000000000000E+00
      3.15954574610104E-13   6.72236910239214E-20   3.15954641833795E-13   2.70799177233236E-15   0.00000000000000E+00
      1.25965057080123E-11   0.00000000000000E+00   0.00000000000000E+00  -3.14912394390343E-13   3.74077002189361E-27
     -3.14912394390340E-13   2.59181501429496E-15   3.00000000000000E+02   2.99999999999999E+02   3.00000000000000E+02
      2.65829380664340E+02   3.00063343274510E+02   4.56207302463125E+02   3.00000000000000E+02   2.99999999999999E+02
      3.00000000000000E+02
      4.33333333333333E-01
      5.20000000000000E-01   5.20000000000000E-01   0.00000000000000E+00   0.00000000000000E+00   0.00000000000000E+00
      0.00000000000000E+00   0.00000000000000E+00   4.39745256150431E-16   0.00000000000000E+00   0.00000000000000E+00
      0.00000000000000E+00   0.00000000000000E+00  -3.11242667376462E-20  -1.04244589743125E-15  -1.04247702169799E-15
     -5.72095862105633E-15   5.00000000000000E-02   4.99999999738544E-02   0.00000000000000E+00   0.00000000000000E+00
      6.53640764668892E-13   6.72236341524301E-20   6.53640831892526E-13   2.69876574460733E-15   0.00000000000000E+00
      2.61039275196488E-11   0.00000000000000E+00   0.00000000000000E+00  -6.52598354870828E-13   7.20862698494882E-29
     -6.52598354870828E-13   2.58244762029857E-15   3.00000000000000E+02   2.99999999999999E+02   3.00000000000000E+02
      2.65765017879506E+02   3.00067013452262E+02   4.58603894480318E+02   3.00000000000000E+02   2.99999999999999E+02
      3.00000000000000E+02
      4.66666666666667E-01
      5.60000000000000E-01   5.60000000000000E-01   0.00000000000000E+00   0.00000000000000E+00   0.00000000000000E+00
      0.00000000000000E+00   0.00000000000000E+00   4.61959816221741E-16   0.00000000000000E+00   0.00000000000000E+00
      0.00000000000000E+00   0.00000000000000E+00  -3.11210689052236E-20  -1.04245855728262E-15  -1.04248967835152E-15
     -5.72441318206418E-15   5.00000000000000E-02   4.99999999458163E-02   0.00000000000000E+00   0.00000000000000E+00
      1.35459311986359E-12   6.72235764199559E-20   1.35459318708717E-12   2.68945675409208E-15   0.00000000000000E+00
      5.41420133601510E-11   0.00000000000000E+00   0.00000000000000E+00  -1.35355069740881E-12   1.57743452527606E-27
     -1.35355069740881E-12   2.57299661175035E-15   3.00000000000000E+02   2.99999999999999E+02   3.00000000000000E+02
      2.65864623325959E+02   3.00071015446446E+02   4.59677683319099E+02   3.00000000000000E+02   2.99999999999999E+02
      3.00000000000000E+02
      5.00000000000000E-01
      6.00000000000000E-01   6.00000000000000E-01   0.00000000000000E+00   0.00000000000000E+00   0.00000000000000E+00
      0.00000000000000E+00   0.00000000000000E+00   4.84257040020438E-16   0.00000000000000E+00   0.00000000000000E+00
      0.00000000000000E+00   0.00000000000000E+00  -3.29788799397698E-20  -1.04226404346677E-15  -1.04229702234671E-15
     -5.72778577108679E-15   5.00000000000000E-02   4.99999998876385E-02   0.00000000000000E+00   0.00000000000000E+00
      2.80903894455505E-12   6.72235315037965E-20   2.80903901177858E-12   2.68006508658216E-15   0.00000000000000E+00
      1.12319868162675E-10   0.00000000000000E+00   0.00000000000000E+00  -2.80799671475625E-12   1.18224044718575E-26
     -2.80799671475624E-12   2.56346364448420E-15   3.00000000000000E+02   2.99999999999999E+02   3.00000000000000E+02
      2.66150145910470E+02   3.00075281431549E+02   4.59428573317608E+02   3.00000000000000E+02   2.99999999999999E+02
      3.00000000000000E+02
      5.33333333333333E-01
      6.40000000000000E-01   6.40000000000000E-01   0.00000000000000E+00   0.00000000000000E+00   0.00000000000000E+00
      0.00000000000000E+00   0.00000000000000E+00   5.06639646133466E-16   0.00000000000000E+00   0.00000000000000E+00
      0.00000000000000E+00   0.00000000000000E+00  -2.97313476116566E-20  -1.04192255494018E-15  -1.04195228628779E-15
     -5.73108274530389E-15   5.00000000000000E-02   4.99999997670412E-02   0.00000000000000E+00   0.00000000000000E+00
      5.82396985306273E-12   6.72234853719877E-20   5.82396992028621E-12   2.67059166800652E-15   0.00000000000000E+00
      2.32917059576704E-10   0.00000000000000E+00   0.00000000000000E+00  -5.82292796799994E-12  -2.91938044446397E-27
     -5.82292796799994E-12   2.55385143116390E-15   3.00000000000000E+02   2.99999999999999E+02   3.00000000000000E+02
      2.66634186447139E+02   3.00079710322914E+02   4.57896076857172E+02   3.00000000000000E+02   2.99999999999999E+02
      3.00000000000000E+02
      5.66666666666667E-01
      6.80000000000000E-01   6.80000000000000E-01   0.00000000000000E+00   0.00000000000000E+00   0.00000000000000E+00
      0.00000000000000E+00   0.00000000000000E+00   5.29110259905813E-16   0.00000000000000E+00   0.00000000000000E+00
      0.00000000000000E+00   0.00000000000000E+00  -2.48034513454870E-20  -1.04148483187657E-15  -1.04150963532791E-15
     -5.73431259109794E-15   5.00000000000000E-02   4.99999995174544E-02   0.00000000000000E+00   0.00000000000000E+00
      1.20636392553908E-11   6.72234294420037E-20   1.20636393226142E-11   2.66103824763066E-15   0.00000000000000E+00
      4.82503938956574E-10   0.00000000000000E+00   0.00000000000000E+00  -1.20625978129789E-11   3.80585673688701E-28
     -1.20625978129789E-11   2.54416408356146E-15   3.00000000000000E+02   2.99999999999999E+02   3.00000000000000E+02
      2.67300983510715E+02   3.00084192135900E+02   4.62943561919282E+02   3.00000000000000E+02   2.99999999999999E+02
      3.00000000000000E+02
      6.00000000000000E-01
      7.20000000000000E-01   7.20000000000000E-01   0.00000000000000E+00   0.00000000000000E+00   0.00000000000000E+00
      0.00000000000000E+00   0.00000000000000E+00   5.51671535720410E-16   0.00000000000000E+00   0.00000000000000E+00
      0.00000000000000E+00   0.00000000000000E+00  -2.59878437310475E-20  -1.04121506684062E-15  -1.04124105468435E-15
     -5.73748674642175E-15   5.00000000000000E-02   4.99999990020658E-02   0.00000000000000E+00   0.00000000000000E+00
      2.49483562993902E-11   6.72233861989627E-20   2.49483563666135E-11   2.65140762975035E-15   0.00000000000000E+00
      9.97892610536092E-10   0.00000000000000E+00   0.00000000000000E+00  -2.49473151255589E-11  -1.52328079076148E-27
     -2.49473151255589E-11   2.53440758095100E-15   3.00000000000000E+02   2.99999999999999E+02   3.00000000000000E+02
      2.68139768788688E+02   3.00088587750246E+02   4.73648193056739E+02   3.00000000000000E+02   2.99999999999999E+02
      3.00000000000000E+02
      6.33333333333333E-01
      7.60000000000000E-01   7.60000000000000E-01   0.00000000000000E+00   0.00000000000000E+00   0.00000000000000E+00
      0.00000000000000E+00   0.00000000000000E+00   5.74326227574815E-16   0.00000000000000E+00   0.00000000000000E+00
      0.00000000000000E+00   0.00000000000000E+00  -4.80110369895253E-20  -1.04054559348750E-15  -1.04059360452449E-15
     -5.74062054828199E-15   5.00000000000000E-02   4.99999979408870E-02   0.00000000000000E+00   0.00000000000000E+00
      5.14778241024287E-11   6.72233421078375E-20   5.14778241696521E-11   2.64170401074379E-15   0.00000000000000E+00
      2.05907138831345E-09   0.00000000000000E+00   0.00000000000000E+00  -5.14767835760476E-11  -6.13724789968687E-28
     -5.14767835760476E-11   2.52459030996339E-15   3.00000000000000E+02   2.99999999999999E+02   3.00000000000000E+02
      2.69140765893699E+02   3.00092739557931E+02   4.83265252344567E+02   3.00000000000000E+02   2.99999999999999E+02
      3.00000000000000E+02
      6.66666666666667E-01
      8.00000000000000E-01   8.00000000000000E-01   0.00000000000000E+00   0.00000000000000E+00   0.00000000000000E+00
      0.00000000000000E+00   0.00000000000000E+00   5.97077211454849E-16   0.00000000000000E+00   0.00000000000000E+00
      0.00000000000000E+00   0.00000000000000E+00  -3.52785415649481E-20  -1.03976076992707E-15  -1.03979604846863E-15
     -5.74373419356673E-15   5.00000000000000E-02   4.99999957637982E-02   0.00000000000000E+00   0.00000000000000E+00
      1.05905045662785E-10   6.72232826092505E-20   1.05905045730008E-10   2.63193344246723E-15   0.00000000000000E+00
      4.23616023306225E-09   0.00000000000000E+00   0.00000000000000E+00  -1.05904005933960E-10   1.16980012855365E-26
     -1.05904005933960E-10   2.51472353964466E-15   3.00000000000000E+02   2.99999999999999E+02   3.00000000000000E+02
      2.70295082107266E+02   3.00096475596814E+02   4.91555076180208E+02   3.00000000000000E+02   2.99999999999999E+02
      3.00000000000000E+02
      7.00000000000000E-01
      8.40000000000000E-01   8.40000000000000E-01   0.00000000000000E+00   0.00000000000000E+00   0.00000000000000E+00
      0.00000000000000E+00   0.00000000000000E+00   6.19927504084698E-16   0.00000000000000E+00   0.00000000000000E+00
      0.00000000000000E+00   0.00000000000000E+00  -9.25258463919512E-20  -1.03887621451422E-15  -1.03896874036061E-15
     -5.74685352133287E-15   5.00000000000000E-02   4.99999913167933E-02   0.00000000000000E+00   0.00000000000000E+00
      2.17080166137673E-10   6.72232371233770E-20   2.17080166204896E-10   2.62210436460996E-15   0.00000000000000E+00
      8.68316512292128E-09   0.00000000000000E+00   0.00000000000000E+00  -2.17079127236156E-10   2.67480935610550E-26
     -2.17079127236156E-10   2.50482165263822E-15   3.00000000000000E+02   2.99999999999999E+02   3.00000000000000E+02
      2.71594755176539E+02   3.00099621964720E+02   4.98320645841363E+02   3.00000000000000E+02   2.99999999999999E+02
      3.00000000000000E+02
      7.33333333333333E-01
      8.80000000000000E-01   8.80000000000000E-01   0.00000000000000E+00   0.00000000000000E+00   0.00000000000000E+00
      0.00000000000000E+00   0.00000000000000E+00   6.42880327934919E-16   0.00000000000000E+00   0.00000000000000E+00
      0.00000000000000E+00   0.00000000000000E+00  -6.64046252640039E-20  -1.03791155555448E-15  -1.03797796017974E-15
     -5.75001036757770E-15   5.00000000000000E-02   4.99999822803044E-02   0.00000000000000E+00   0.00000000000000E+00
      4.42992390025117E-10   6.72231908368794E-20   4.42992390092340E-10   2.61222806719542E-15   0.00000000000000E+00
      1.77196541026931E-08   0.00000000000000E+00   0.00000000000000E+00  -4.42991352114381E-10   5.60138268683924E-26
     -4.42991352114381E-10   2.49490197244736E-15   3.00000000000000E+02   2.99999999999999E+02   3.00000000000000E+02
      2.73032861831960E+02   3.00102015898345E+02   5.03409219749701E+02   3.00000000000000E+02   2.99999999999999E+02
      3.00000000000000E+02
      7.66666666666667E-01
      9.20000000000000E-01   9.20000000000000E-01   0.00000000000000E+00   0.00000000000000E+00   0.00000000000000E+00
      0.00000000000000E+00   0.00000000000000E+00   6.65939238162759E-16   0.00000000000000E+00   0.00000000000000E+00
      0.00000000000000E+00   0.00000000000000E+00  -9.73016722614736E-20  -1.03688145855524E-15  -1.03697876022751E-15
     -5.75324224363558E-15   5.00000000000000E-02   4.99999640302514E-02   0.00000000000000E+00   0.00000000000000E+00
      8.99243716713100E-10   6.72231347606335E-20   8.99243716780323E-10   2.60231890442022E-15   0.00000000000000E+00
      3.59697071542122E-08   0.00000000000000E+00   0.00000000000000E+00  -8.99242679801561E-10   1.14694522167310E-25
     -8.99242679801561E-10   2.48498410105260E-15   3.00000000000000E+02   2.99999999999999E+02   3.00000000000000E+02
      2.74603512832508E+02   3.00103516644164E+02   5.06710211706749E+02   3.00000000000000E+02   2.99999999999999E+02
      3.00000000000000E+02
      8.00000000000000E-01
      9.60000000000000E-01   9.60000000000000E-01   0.00000000000000E+00   0.00000000000000E+00   0.00000000000000E+00
      0.00000000000000E+00   0.00000000000000E+00   6.89108283491506E-16   0.00000000000000E+00   0.00000000000000E+00
      0.00000000000000E+00   0.00000000000000E+00  -7.60222897251139E-20  -1.03652046872272E-15  -1.03659649101245E-15
     -5.75659118042467E-15   5.00000000000000E-02   4.99999274377055E-02   0.00000000000000E+00   0.00000000000000E+00
      1.81405736260699E-09   6.72230855079409E-20   1.81405736267421E-09   2.59239410215038E-15   0.00000000000000E+00
      7.25622530565104E-08   0.00000000000000E+00   0.00000000000000E+00  -1.81405632607772E-09   2.26357700578506E-25
     -1.81405632607772E-09   2.47508879478278E-15   3.00000000000000E+02   2.99999999999999E+02   3.00000000000000E+02
      2.76301743827220E+02   3.00104018017823E+02   5.08151754792933E+02   3.00000000000000E+02   2.99999999999999E+02
      3.00000000000000E+02
      8.33333333333333E-01
      1.00000000000000E+00   1.00000000000000E+00   0.00000000000000E+00   0.00000000000000E+00   0.00000000000000E+00
      0.00000000000000E+00   0.00000000000000E+00   7.12392155541535E-16   0.00000000000000E+00   0.00000000000000E+00
      0.00000000000000E+00   0.00000000000000E+00   1.00244239725032E-19  -1.03536235192570E-15  -1.03526210768597E-15
     -5.76010177165731E-15   5.00000000000000E-02   4.99998546862886E-02   0.00000000000000E+00   0.00000000000000E+00
      3.63284278624145E-09   6.72230095293077E-20   3.63284278630868E-09   2.58247307654580E-15   0.00000000000000E+00
      1.45313670084842E-07   0.00000000000000E+00   0.00000000000000E+00  -3.63284175104658E-09   4.52730496946189E-25
     -3.63284175104658E-09   2.46523653956998E-15   3.00000000000000E+02   2.99999999999999E+02   3.00000000000000E+02
      2.78123266098208E+02   3.00103460141160E+02   5.07696607205314E+02   3.00000000000000E+02   2.99999999999999E+02
      3.00000000000000E+02
      8.66666666666667E-01
      1.04000000000000E+00   1.04000000000000E+00   0.00000000000000E+00   0.00000000000000E+00   0.00000000000000E+00
      0.00000000000000E+00   0.00000000000000E+00   7.35796297633042E-16   0.00000000000000E+00   0.00000000000000E+00
      0.00000000000000E+00   0.00000000000000E+00   4.67593631213601E-19  -1.03416777844142E-15  -1.03370018481021E-15
     -5.76381868576639E-15   5.00000000000000E-02   4.99997114761387E-02   0.00000000000000E+00   0.00000000000000E+00
      7.21309653386558E-09   6.72229223294603E-20   7.21309653393280E-09   2.57257629170973E-15   0.00000000000000E+00
      2.88523819969730E-07   0.00000000000000E+00   0.00000000000000E+00  -7.21309550023263E-09   8.96435636432546E-25
     -7.21309550023263E-09   2.45544609642362E-15   3.00000000000000E+02   2.99999999999999E+02   3.00000000000000E+02
      2.80064071835342E+02   3.00101838177252E+02   5.05339303422308E+02   3.00000000000000E+02   2.99999999999999E+02
      3.00000000000000E+02
      9.00000000000000E-01
      1.08000000000000E+00   1.08000000000000E+00   0.00000000000000E+00   0.00000000000000E+00   0.00000000000000E+00
      0.00000000000000E+00   0.00000000000000E+00   7.59326964549418E-16   0.00000000000000E+00   0.00000000000000E+00
      0.00000000000000E+00   0.00000000000000E+00   4.76768135755944E-19  -1.03293885660451E-15  -1.03246208846875E-15
     -5.76778408215912E-15   5.00000000000000E-02   4.99994328385988E-02   0.00000000000000E+00   0.00000000000000E+00
      1.41790350315565E-08   6.72227851932289E-20   1.41790350316237E-08   2.56272380882672E-15   0.00000000000000E+00
      5.67161359916639E-07   0.00000000000000E+00   0.00000000000000E+00  -1.41790339991617E-08   1.77090447989505E-24
     -1.41790339991617E-08   2.44573330878298E-15   3.00000000000000E+02   2.99999999999999E+02   3.00000000000000E+02
      2.82013283814488E+02   3.00099207867212E+02   5.01104864699798E+02   3.00000000000000E+02   2.99999999999999E+02
      3.00000000000000E+02
      9.33333333333333E-01
      1.12000000000000E+00   1.12000000000000E+00   0.00000000000000E+00   0.00000000000000E+00   0.00000000000000E+00
      0.00000000000000E+00   0.00000000000000E+00   7.82991214762380E-16   0.00000000000000E+00   0.00000000000000E+00