DF-ISE text

Info {
  version   = 1.0
  type      = xyplot
  datasets  = [
    "time"
    "gate OuterVoltage" "gate InnerVoltage" "gate QuasiFermiPotential" "gate DisplacementCurrent" "gate eCurrent"
    "gate hCurrent" "gate TotalCurrent" "gate Charge" "substrate OuterVoltage" "substrate InnerVoltage"
    "substrate QuasiFermiPotential" "substrate DisplacementCurrent" "substrate eCurrent" "substrate hCurrent" "substrate TotalCurrent"
    "substrate Charge" "substrate Temperature" "substrate lHeatFlux" "substrate eHeatFlux" "substrate hHeatFlux"
    "drain OuterVoltage" "drain InnerVoltage" "drain QuasiFermiPotential" "drain DisplacementCurrent" "drain eCurrent"
    "drain hCurrent" "drain TotalCurrent" "drain Charge" "source OuterVoltage" "source InnerVoltage"
    "source QuasiFermiPotential" "source DisplacementCurrent" "source eCurrent" "source hCurrent" "source TotalCurrent"
    "source Charge" "lTmin" "lTave" "lTmax" "eTmin"
    "eTave" "eTmax" "hTmin" "hTave" "hTmax" ]
  functions = [
    Time
    OuterVoltage InnerVoltage QuasiFermiPotential DisplacementCurrent eCurrent
    hCurrent TotalCurrent Charge OuterVoltage InnerVoltage
    QuasiFermiPotential DisplacementCurrent eCurrent hCurrent TotalCurrent
    Charge Temperature lHeatFlux eHeatFlux hHeatFlux
    OuterVoltage InnerVoltage QuasiFermiPotential DisplacementCurrent eCurrent
    hCurrent TotalCurrent Charge OuterVoltage InnerVoltage
    QuasiFermiPotential DisplacementCurrent eCurrent hCurrent TotalCurrent
    Charge MinTemperature AveTemperature MaxTemperature MinTemperature
    AveTemperature MaxTemperature MinTemperature AveTemperature MaxTemperature ]
}

Data {
      0.00000000000000E+00
      0.00000000000000E+00   0.00000000000000E+00   0.00000000000000E+00   0.00000000000000E+00   0.00000000000000E+00
      0.00000000000000E+00   0.00000000000000E+00  -5.78196361136362E-17   0.00000000000000E+00   0.00000000000000E+00
      0.00000000000000E+00   0.00000000000000E+00  -2.75600610971164E-20  -1.86653948588066E-11  -1.86653948863667E-11
     -7.65064397755406E-15   3.00000000000000E+02  -4.02728539068447E-11   1.06881432311908E-21   0.00000000000000E+00
      1.20000000000000E+00   1.19999999925336E+00   0.00000000000000E+00   0.00000000000000E+00   1.86659393440563E-11
      7.77034060285568E-20   1.86659394217597E-11   5.01127626479059E-15   0.00000000000000E+00   2.17672027181838E-14
      0.00000000000000E+00   0.00000000000000E+00  -5.44535392901507E-16  -6.62100348296528E-26  -5.44535392967717E-16
      2.69718734887708E-15   3.00000000000000E+02   3.00000000134315E+02   3.00000000446040E+02   2.99875998112455E+02
      3.13853077032538E+02   2.15056771632711E+03   3.00000000000000E+02   3.00000000126713E+02   3.00000000446040E+02
      3.33333333333333E-02
      4.00000000000000E-02   4.00000000000000E-02   0.00000000000000E+00   0.00000000000000E+00   0.00000000000000E+00
      0.00000000000000E+00   0.00000000000000E+00  -3.76413610572182E-17   0.00000000000000E+00   0.00000000000000E+00
      0.00000000000000E+00   0.00000000000000E+00  -2.76147413367452E-20  -1.85605088360768E-11  -1.85605088636916E-11
     -7.65543135921641E-15   3.00000000000000E+02  -4.00480729560113E-11   1.07070607793259E-21   0.00000000000000E+00
      1.20000000000000E+00   1.19999999925753E+00   0.00000000000000E+00   0.00000000000000E+00   1.85616290151776E-11
      7.77032636943084E-20   1.85616290928809E-11   5.00435254542489E-15   0.00000000000000E+00   4.48100267864722E-14
      0.00000000000000E+00   0.00000000000000E+00  -1.12022918914140E-15  -1.75087212777468E-25  -1.12022918931649E-15
      2.68872017484873E-15   3.00000000000000E+02   3.00000000133564E+02   3.00000000443514E+02   2.99726581124045E+02
      3.13845562517829E+02   2.14572033765812E+03   3.00000000000000E+02   3.00000000126004E+02   3.00000000443514E+02
      6.66666666666667E-02
      8.00000000000000E-02   8.00000000000000E-02   0.00000000000000E+00   0.00000000000000E+00   0.00000000000000E+00
      0.00000000000000E+00   0.00000000000000E+00  -1.74648190216863E-17   0.00000000000000E+00   0.00000000000000E+00
      0.00000000000000E+00   0.00000000000000E+00  -2.62247500264187E-20  -1.84597919515720E-11  -1.84597919777968E-11
     -7.66010950893810E-15   3.00000000000000E+02  -3.98319828669784E-11   1.06216456956299E-21   0.00000000000000E+00
      1.20000000000000E+00   1.19999999926152E+00   0.00000000000000E+00   0.00000000000000E+00   1.84620234142252E-11
      7.77028478233471E-20   1.84620234919280E-11   4.99739885779095E-15   0.00000000000000E+00   8.93547243321227E-14
      0.00000000000000E+00   0.00000000000000E+00  -2.23151413232355E-15   1.07152812658715E-24  -2.23151413125202E-15
      2.68017547016883E-15   3.00000000000000E+02   3.00000000132841E+02   3.00000000441098E+02   2.96632805975801E+02
      3.13859307773532E+02   2.14211296598896E+03   3.00000000000000E+02   3.00000000125324E+02   3.00000000441098E+02
      1.00000000000000E-01
      1.20000000000000E-01   1.20000000000000E-01   0.00000000000000E+00   0.00000000000000E+00   0.00000000000000E+00
      0.00000000000000E+00   0.00000000000000E+00   2.71630641531539E-18   0.00000000000000E+00   0.00000000000000E+00
      0.00000000000000E+00   0.00000000000000E+00  -2.60368378222054E-20  -1.83604806825315E-11  -1.83604807085683E-11
     -7.66468238118648E-15   3.00000000000000E+02  -3.96218537603957E-11   1.04139566019706E-21   0.00000000000000E+00
      1.20000000000000E+00   1.19999999926540E+00   0.00000000000000E+00   0.00000000000000E+00   1.83649073020820E-11
      7.77030456807115E-20   1.83649073797851E-11   4.99041494524994E-15   0.00000000000000E+00   1.77525672051348E-13
      0.00000000000000E+00   0.00000000000000E+00  -4.42667121550398E-15  -1.33544764927532E-24  -4.42667121683943E-15
      2.67155112952122E-15   3.00000000000000E+02   3.00000000132139E+02   3.00000000438745E+02   2.89879331188849E+02
      3.13896059106499E+02   2.16439527096479E+03   3.00000000000000E+02   3.00000000124663E+02   3.00000000438745E+02
      1.33333333333333E-01
      1.60000000000000E-01   1.60000000000000E-01   0.00000000000000E+00   0.00000000000000E+00   0.00000000000000E+00
      0.00000000000000E+00   0.00000000000000E+00   2.29081935638958E-17   0.00000000000000E+00   0.00000000000000E+00
      0.00000000000000E+00   0.00000000000000E+00  -2.55075699973898E-20  -1.82638419540256E-11  -1.82638419795331E-11
     -7.66915395919746E-15   3.00000000000000E+02  -3.94197352833819E-11   9.89713100497376E-22   0.00000000000000E+00
      1.20000000000000E+00   1.19999999926909E+00   0.00000000000000E+00   0.00000000000000E+00   1.82727972374961E-11
      7.77029710047513E-20   1.82727973151990E-11   4.98340054677520E-15   0.00000000000000E+00   3.58194475109354E-13
      0.00000000000000E+00   0.00000000000000E+00  -8.95533566593197E-15   8.17271197946395E-27  -8.95533566592380E-15
      2.66284521885837E-15   3.00000000000000E+02   3.00000000131464E+02   3.00000000436483E+02   2.85880562046357E+02
      3.13986007049436E+02   2.22051418909009E+03   3.00000000000000E+02   3.00000000124027E+02   3.00000000436483E+02
      1.66666666666667E-01
      2.00000000000000E-01   2.00000000000000E-01   0.00000000000000E+00   0.00000000000000E+00   0.00000000000000E+00
      0.00000000000000E+00   0.00000000000000E+00   4.31167568402516E-17   0.00000000000000E+00   0.00000000000000E+00
      0.00000000000000E+00   0.00000000000000E+00  -2.17662242847766E-20  -1.81829297631598E-11  -1.81829297849260E-11
     -7.67352821206398E-15   3.00000000000000E+02  -3.92576520533649E-11   8.52617456545986E-22   0.00000000000000E+00
      1.20000000000000E+00   1.19999999927194E+00   0.00000000000000E+00   0.00000000000000E+00   1.82015689924846E-11
      7.77028431003637E-20   1.82015690701874E-11   4.97635539509060E-15   0.00000000000000E+00   7.45554756767499E-13
      0.00000000000000E+00   0.00000000000000E+00  -1.86392852630486E-14   1.62593983804802E-24  -1.86392852614226E-14
      2.65405606013312E-15   3.00000000000000E+02   3.00000000130922E+02   3.00000000434695E+02   2.83895157904366E+02
      3.14189106341511E+02   2.32183737421146E+03   3.00000000000000E+02   3.00000000123516E+02   3.00000000434695E+02
      2.00000000000000E-01
      2.40000000000000E-01   2.40000000000000E-01   0.00000000000000E+00   0.00000000000000E+00   0.00000000000000E+00
      0.00000000000000E+00   0.00000000000000E+00   6.33475329268342E-17   0.00000000000000E+00   0.00000000000000E+00
      0.00000000000000E+00   0.00000000000000E+00  -1.52190349552835E-20  -1.80921996398930E-11  -1.80921996551120E-11
     -7.67780898727146E-15   3.00000000000000E+02  -3.90874955408101E-11   5.86090333691044E-22   0.00000000000000E+00
      1.20000000000000E+00   1.19999999927474E+00   0.00000000000000E+00   0.00000000000000E+00   1.81315626425191E-11
      7.77027993745199E-20   1.81315627202219E-11   4.96927921250545E-15   0.00000000000000E+00   1.57458617468584E-12
      0.00000000000000E+00   0.00000000000000E+00  -3.93630651107703E-14   8.81734083089903E-25  -3.93630651098886E-14
      2.64518224183918E-15   3.00000000000000E+02   3.00000000130353E+02   3.00000000432834E+02   2.82546385259384E+02
      3.14515441547397E+02   2.48351319415089E+03   3.00000000000000E+02   3.00000000122980E+02   3.00000000432834E+02
      2.33333333333333E-01
      2.80000000000000E-01   2.80000000000000E-01   0.00000000000000E+00   0.00000000000000E+00   0.00000000000000E+00
      0.00000000000000E+00   0.00000000000000E+00   8.36056188031960E-17   0.00000000000000E+00   0.00000000000000E+00
      0.00000000000000E+00   0.00000000000000E+00  -6.80882766418958E-22  -1.80036438095206E-11  -1.80036438102015E-11
     -7.68199988676330E-15   3.00000000000000E+02  -3.89512074330477E-11  -2.57591266062840E-23   0.00000000000000E+00
      1.20000000000000E+00   1.19999999927648E+00   0.00000000000000E+00   0.00000000000000E+00   1.80880316510267E-11
      7.77026268826127E-20   1.80880317287293E-11   4.96217170843025E-15   0.00000000000000E+00   3.37549819179262E-12
      0.00000000000000E+00   0.00000000000000E+00  -8.43879185269380E-14  -9.10301065674425E-25  -8.43879185278483E-14
      2.63622255952985E-15   3.00000000000000E+02   3.00000000129898E+02   3.00000000431422E+02   2.81828871128133E+02
      3.15059608894432E+02   2.66489823446804E+03   3.00000000000000E+02   3.00000000122551E+02   3.00000000431422E+02
      2.66666666666667E-01
      3.20000000000000E-01   3.20000000000000E-01   0.00000000000000E+00   0.00000000000000E+00   0.00000000000000E+00
      0.00000000000000E+00   0.00000000000000E+00   1.03895672549558E-16   0.00000000000000E+00   0.00000000000000E+00
      0.00000000000000E+00   0.00000000000000E+00   3.75039213787174E-20  -1.79173828157032E-11  -1.79173827781992E-11
     -7.68610417947542E-15   3.00000000000000E+02  -3.88838465412751E-11  -1.47305975476646E-21   0.00000000000000E+00
      1.20000000000000E+00   1.19999999927599E+00   0.00000000000000E+00   0.00000000000000E+00   1.81001459531286E-11
      7.77025512434818E-20   1.81001460308311E-11   4.95503258251389E-15   0.00000000000000E+00   7.31048390774110E-12
      0.00000000000000E+00   0.00000000000000E+00  -1.82763252632488E-13   7.28908893381985E-25  -1.82763252631759E-13
      2.62717592441197E-15   3.00000000000000E+02   3.00000000129673E+02   3.00000000431027E+02   2.81474036556501E+02
      3.15889862785931E+02   2.84597367312493E+03   3.00000000000000E+02   3.00000000122340E+02   3.00000000431027E+02
      3.00000000000000E-01
      3.60000000000000E-01   3.60000000000000E-01   0.00000000000000E+00   0.00000000000000E+00   0.00000000000000E+00
      0.00000000000000E+00   0.00000000000000E+00   1.24221957252669E-16   0.00000000000000E+00   0.00000000000000E+00
      0.00000000000000E+00   0.00000000000000E+00   1.24739256074644E-19  -1.78251587127446E-11  -1.78251585880054E-11
     -7.69012478944400E-15   3.00000000000000E+02  -3.89444588132767E-11  -4.99346949391272E-21   0.00000000000000E+00
      1.20000000000000E+00   1.19999999927105E+00   0.00000000000000E+00   0.00000000000000E+00   1.82236633626377E-11
      7.77016291396215E-20   1.82236634403393E-11   4.94786153385936E-15   0.00000000000000E+00   1.59407562792128E-11
      0.00000000000000E+00   0.00000000000000E+00  -3.98504852333842E-13  -8.74640082479593E-26  -3.98504852333930E-13
      2.61804129833195E-15   3.00000000000000E+02   3.00000000129875E+02   3.00000000432398E+02   2.81326270718625E+02
      3.17072753400977E+02   3.03389254554014E+03   3.00000000000000E+02   3.00000000122530E+02   3.00000000432398E+02
      3.33333333333333E-01
      4.00000000000000E-01   4.00000000000000E-01   0.00000000000000E+00   0.00000000000000E+00   0.00000000000000E+00
      0.00000000000000E+00   0.00000000000000E+00   1.44588393810268E-16   0.00000000000000E+00   0.00000000000000E+00
      0.00000000000000E+00   0.00000000000000E+00   3.46969049185280E-19  -1.77189441020719E-11  -1.77189437551029E-11
     -7.69406437585795E-15   3.00000000000000E+02  -3.92849776981405E-11  -1.37182792696807E-20   0.00000000000000E+00
      1.20000000000000E+00   1.19999999925634E+00   0.00000000000000E+00   0.00000000000000E+00   1.85915520106863E-11
      7.77018446492893E-20   1.85915520883882E-11   4.94065827401891E-15   0.00000000000000E+00   3.49042759344872E-11
      0.00000000000000E+00   0.00000000000000E+00  -8.72608333285640E-13   2.95494427542812E-25  -8.72608333285345E-13
      2.60881770802877E-15   3.00000000000000E+02   3.00000000131012E+02   3.00000000437621E+02   2.81271708777657E+02
      3.18680348775265E+02   3.18054632662921E+03   3.00000000000000E+02   3.00000000123602E+02   3.00000000437621E+02
      3.66666666666667E-01
      4.40000000000000E-01   4.40000000000000E-01   0.00000000000000E+00   0.00000000000000E+00   0.00000000000000E+00
      0.00000000000000E+00   0.00000000000000E+00   1.64998600273792E-16   0.00000000000000E+00   0.00000000000000E+00
      0.00000000000000E+00   0.00000000000000E+00   9.29190764659240E-19  -1.76437936839900E-11  -1.76437927547992E-11
     -7.69792549773609E-15   3.00000000000000E+02  -4.03759448916220E-11  -3.55475013763070E-20   0.00000000000000E+00
      1.20000000000000E+00   1.19999999921759E+00   0.00000000000000E+00   0.00000000000000E+00   1.95602209559413E-11
      7.76701942862441E-20   1.95602210336115E-11   4.93342253941250E-15   0.00000000000000E+00   7.66573833076273E-11
      0.00000000000000E+00   0.00000000000000E+00  -1.91642827881303E-12   7.59695851264446E-25  -1.91642827881227E-12
      2.59950435804981E-15   3.00000000000000E+02   3.00000000134654E+02   3.00000000452787E+02   2.81287472175660E+02
      3.20773389921969E+02   3.63464899080042E+03   3.00000000000000E+02   3.00000000127035E+02   3.00000000452787E+02
      4.00000000000000E-01
      4.80000000000000E-01   4.80000000000000E-01   0.00000000000000E+00   0.00000000000000E+00   0.00000000000000E+00
      0.00000000000000E+00   0.00000000000000E+00   1.85455921055202E-16   0.00000000000000E+00   0.00000000000000E+00
      0.00000000000000E+00   0.00000000000000E+00   2.31091740172740E-18  -1.75700790104898E-11  -1.75700766995724E-11
     -7.70171084224006E-15   3.00000000000000E+02  -4.29772872014520E-11  -9.01152264914956E-20   0.00000000000000E+00
      1.20000000000000E+00   1.19999999912854E+00   0.00000000000000E+00   0.00000000000000E+00   2.17864789620636E-11
      7.77020701051905E-20   2.17864790397657E-11   4.92615409849170E-15   0.00000000000000E+00   1.68656021679802E-10
      0.00000000000000E+00   0.00000000000000E+00  -4.21640234019266E-12  -5.44316426045206E-25  -4.21640234019320E-12
      2.59010082269316E-15   3.00000000000000E+02   3.00000000143340E+02   3.00000000488360E+02   2.81339717010001E+02
      3.23338802414522E+02   4.12895653088442E+03   3.00000000000000E+02   3.00000000135222E+02   3.00000000488360E+02
      4.33333333333333E-01
      5.20000000000000E-01   5.20000000000000E-01   0.00000000000000E+00   0.00000000000000E+00   0.00000000000000E+00
      0.00000000000000E+00   0.00000000000000E+00   2.05963470557499E-16   0.00000000000000E+00   0.00000000000000E+00
      0.00000000000000E+00   0.00000000000000E+00   5.81306667802828E-18  -1.71486299919812E-11  -1.71486241789145E-11
     -7.70542349667362E-15   3.00000000000000E+02  -4.81518137868583E-11  -2.25376313216599E-19   0.00000000000000E+00
      1.20000000000000E+00   1.19999999894264E+00   0.00000000000000E+00   0.00000000000000E+00   2.64338820015221E-11
      7.75852563150458E-20   2.64338820791073E-11   4.91885274948890E-15   0.00000000000000E+00   3.71410259265445E-10
      0.00000000000000E+00   0.00000000000000E+00  -9.28525790019275E-12   1.27467446887099E-26  -9.28525790019273E-12
      2.58060727662720E-15   3.00000000000000E+02   3.00000000160621E+02   3.00000000560662E+02   2.81415085728090E+02
      3.26269368743400E+02   4.51407843085124E+03   3.00000000000000E+02   3.00000000151507E+02   3.00000000560662E+02
      4.66666666666667E-01
      5.60000000000000E-01   5.60000000000000E-01   0.00000000000000E+00   0.00000000000000E+00   0.00000000000000E+00
      0.00000000000000E+00   0.00000000000000E+00   2.26524214057087E-16   0.00000000000000E+00   0.00000000000000E+00
      0.00000000000000E+00   0.00000000000000E+00   1.42966718618958E-17  -1.71008595604815E-11  -1.71008452638097E-11
     -7.70906725942769E-15   3.00000000000000E+02  -6.14483758697234E-11  -5.55298306116710E-19   0.00000000000000E+00
      1.20000000000000E+00   1.19999999849787E+00   0.00000000000000E+00   0.00000000000000E+00   3.75531578274958E-11
      7.77019287571539E-20   3.75531579051977E-11   4.91151830498052E-15   0.00000000000000E+00   8.18092944431252E-10
      0.00000000000000E+00   0.00000000000000E+00  -2.04523126413893E-11   1.22655234019565E-24  -2.04523126413881E-11
      2.57102474039009E-15   3.00000000000000E+02   3.00000000205022E+02   3.00000000739768E+02   2.81511473737213E+02
      3.29447723943071E+02   4.78338700968888E+03   3.00000000000000E+02   3.00000000193355E+02   3.00000000739768E+02
      5.00000000000000E-01
      6.00000000000000E-01   6.00000000000000E-01   0.00000000000000E+00   0.00000000000000E+00   0.00000000000000E+00
      0.00000000000000E+00   0.00000000000000E+00   2.47141083891422E-16   0.00000000000000E+00   0.00000000000000E+00
      0.00000000000000E+00   0.00000000000000E+00   5.23510037455654E-17  -1.70529643166965E-11  -1.70529119656927E-11
     -7.71264701408066E-15   3.00000000000000E+02  -9.08369143898126E-11  -1.33796977555884E-18   0.00000000000000E+00
      1.20000000000000E+00   1.19999999751663E+00   0.00000000000000E+00   0.00000000000000E+00   6.20842129829902E-11
      7.76976559576303E-20   6.20842130606879E-11   4.90415056541769E-15   0.00000000000000E+00   1.80125117931135E-09
      0.00000000000000E+00   0.00000000000000E+00  -4.50313010949947E-11  -4.02490935875597E-25  -4.50313010949951E-11
      2.56135536477154E-15   3.00000000000000E+02   3.00000000303164E+02   3.00000001133440E+02   2.81634713427102E+02
      3.32810925508440E+02   4.99931287461171E+03   3.00000000000000E+02   3.00000000285850E+02   3.00000001133440E+02
      5.33333333333333E-01
      6.40000000000000E-01   6.40000000000000E-01   0.00000000000000E+00   0.00000000000000E+00   0.00000000000000E+00
      0.00000000000000E+00   0.00000000000000E+00   2.67817102229107E-16   0.00000000000000E+00   0.00000000000000E+00
      0.00000000000000E+00   0.00000000000000E+00   8.04746432366815E-17  -1.70140095831611E-11  -1.70139291085179E-11
     -7.71616919043898E-15   3.00000000000000E+02  -1.55565128407725E-10  -3.12040608203578E-18   0.00000000000000E+00
      1.20000000000000E+00   1.19999999535758E+00   0.00000000000000E+00   0.00000000000000E+00   1.16060378881737E-10
      7.77017586671388E-20   1.16060378959439E-10   4.89674927651058E-15   0.00000000000000E+00   3.96185802674457E-09
      0.00000000000000E+00   0.00000000000000E+00  -9.90464498509211E-11   2.56758820933602E-26  -9.90464498509211E-11
      2.55160281169930E-15   3.00000000000000E+02   3.00000000519330E+02   3.00000001995811E+02   2.81795321890411E+02
      3.36292081077431E+02   5.15828625929147E+03   3.00000000000000E+02   3.00000000489573E+02   3.00000001995811E+02
      5.66666666666667E-01
      6.80000000000000E-01   6.80000000000000E-01   0.00000000000000E+00   0.00000000000000E+00   0.00000000000000E+00
      0.00000000000000E+00   0.00000000000000E+00   2.88555475179605E-16   0.00000000000000E+00   0.00000000000000E+00
      0.00000000000000E+00   0.00000000000000E+00   1.80493505705540E-16  -1.69693761531828E-11  -1.69691956596771E-11
     -7.71964233248854E-15   3.00000000000000E+02  -2.97580988420352E-10  -7.00694020430226E-18   0.00000000000000E+00
      1.20000000000000E+00   1.19999999062181E+00   0.00000000000000E+00   0.00000000000000E+00   2.34454680804006E-10
      7.77016521291767E-20   2.34454680881707E-10   4.88931407477453E-15   0.00000000000000E+00   8.69941946774823E-09
      0.00000000000000E+00   0.00000000000000E+00  -2.17485485222030E-10  -5.55311460971215E-26  -2.17485485222030E-10
      2.54177278253441E-15   3.00000000000000E+02   3.00000000993626E+02   3.00000003877565E+02   2.82007540484516E+02
      3.39785920215641E+02   5.27057866522716E+03   3.00000000000000E+02   3.00000000936556E+02   3.00000003877565E+02
      6.00000000000000E-01
      7.20000000000000E-01   7.20000000000000E-01   0.00000000000000E+00   0.00000000000000E+00   0.00000000000000E+00
      0.00000000000000E+00   0.00000000000000E+00   3.09359651235247E-16   0.00000000000000E+00   0.00000000000000E+00
      0.00000000000000E+00   0.00000000000000E+00   3.91922735238074E-16  -1.68539103911590E-11  -1.68535184684238E-11
     -7.72307773819720E-15   3.00000000000000E+02  -6.07841586015144E-10  -1.51982318726059E-17   0.00000000000000E+00
      1.20000000000000E+00   1.19999998027503E+00   0.00000000000000E+00   0.00000000000000E+00   4.93124340543340E-10
      7.77024451302821E-20   4.93124340621042E-10   4.88184442037172E-15   0.00000000000000E+00   1.90508328956078E-08
      0.00000000000000E+00   0.00000000000000E+00  -4.76270822152616E-10   1.15665479525557E-25  -4.76270822152616E-10
      2.53187366659023E-15   3.00000000000000E+02   3.00000002029855E+02   3.00000007965998E+02   2.82260280635559E+02
      3.43175499900493E+02   5.34833666348630E+03   3.00000000000000E+02   3.00000001913089E+02   3.00000007965998E+02
      6.33333333333333E-01
      7.60000000000000E-01   7.60000000000000E-01   0.00000000000000E+00   0.00000000000000E+00   0.00000000000000E+00
      0.00000000000000E+00   0.00000000000000E+00   3.30233377538902E-16   0.00000000000000E+00   0.00000000000000E+00
      0.00000000000000E+00   0.00000000000000E+00   8.28728048341111E-16  -1.68178957444009E-11  -1.68170670163525E-11
     -7.72649007057321E-15   3.00000000000000E+02  -1.28389942815296E-09  -3.21366385134405E-17   0.00000000000000E+00
      1.20000000000000E+00   1.19999995773621E+00   0.00000000000000E+00   0.00000000000000E+00   1.05659484341352E-09
      7.77015638715446E-20   1.05659484349122E-09   4.87433951519428E-15   0.00000000000000E+00   4.15911110439701E-08
      0.00000000000000E+00   0.00000000000000E+00  -1.03977777647487E-09   1.57790632825528E-25  -1.03977777647487E-09
      2.52191717784003E-15   3.00000000000000E+02   3.00000004287886E+02   3.00000016823047E+02   2.82613280540862E+02
      3.46343571797251E+02   5.40255436873907E+03   3.00000000000000E+02   3.00000004040987E+02   3.00000016823047E+02
      6.66666666666667E-01
      8.00000000000000E-01   8.00000000000000E-01   0.00000000000000E+00   0.00000000000000E+00   0.00000000000000E+00
      0.00000000000000E+00   0.00000000000000E+00   3.51180806577254E-16   0.00000000000000E+00   0.00000000000000E+00
      0.00000000000000E+00   0.00000000000000E+00   1.72173321468981E-15  -1.67861641521410E-11  -1.67844424189263E-11
     -7.72989777481354E-15   3.00000000000000E+02  -2.74910800511088E-09  -6.67647577392016E-17   0.00000000000000E+00
      1.20000000000000E+00   1.19999990888962E+00   0.00000000000000E+00   0.00000000000000E+00   2.27775939330591E-09
      7.77013001645525E-20   2.27775939338361E-09   4.86679820185989E-15   0.00000000000000E+00   9.04389980711642E-08
      0.00000000000000E+00   0.00000000000000E+00  -2.26097495096469E-09  -2.46549487293152E-25  -2.26097495096469E-09
      2.51191876637641E-15   3.00000000000000E+02   3.00000009181871E+02   3.00000035907519E+02   2.83092557477184E+02
      3.49152555786260E+02   5.44173128670835E+03   3.00000000000000E+02   3.00000008652814E+02   3.00000035907519E+02
      7.00000000000000E-01
      8.40000000000000E-01   8.40000000000000E-01   0.00000000000000E+00   0.00000000000000E+00   0.00000000000000E+00
      0.00000000000000E+00   0.00000000000000E+00   3.72206689199288E-16   0.00000000000000E+00   0.00000000000000E+00
      0.00000000000000E+00   0.00000000000000E+00   3.53021169865670E-15  -1.67535662191894E-11  -1.67500360074908E-11
     -7.73332309380046E-15   3.00000000000000E+02  -5.90571048879544E-09  -1.36924928996681E-16   0.00000000000000E+00
      1.20000000000000E+00   1.19999980365700E+00   0.00000000000000E+00   0.00000000000000E+00   4.90857508552556E-09
      7.77012049506075E-20   4.90857508560326E-09   4.85921882275959E-15   0.00000000000000E+00   1.95673001968836E-07
      0.00000000000000E+00   0.00000000000000E+00  -4.89182504959577E-09   1.03840663749937E-24  -4.89182504959577E-09
      2.50189758184156E-15   3.00000000000000E+02   3.00000019725754E+02   3.00000076782346E+02   2.83731966742407E+02
      3.51498704239182E+02   5.47051031280986E+03   3.00000000000000E+02   3.00000018588552E+02   3.00000076782346E+02
      7.33333333333333E-01
      8.80000000000000E-01   8.80000000000000E-01   0.00000000000000E+00   0.00000000000000E+00   0.00000000000000E+00
      0.00000000000000E+00   0.00000000000000E+00   3.93316650752907E-16   0.00000000000000E+00   0.00000000000000E+00
      0.00000000000000E+00   0.00000000000000E+00   7.16375036838792E-15  -1.67206722272488E-11  -1.67135084768804E-11
     -7.73679149467688E-15   3.00000000000000E+02  -1.26566503816097E-08  -2.77788581097111E-16   0.00000000000000E+00
      1.20000000000000E+00   1.19999957859970E+00   0.00000000000000E+00   0.00000000000000E+00   1.05350075754354E-08
      7.77010372087655E-20   1.05350075755131E-08   4.85159899770735E-15   0.00000000000000E+00   4.20731762620475E-07
      0.00000000000000E+00   0.00000000000000E+00  -1.05182940670362E-08   7.08003281600119E-25  -1.05182940670362E-08
      2.49187584621664E-15   3.00000000000000E+02   3.00000042276622E+02   3.00000163688337E+02   2.84578069680268E+02
      3.53375108143712E+02   5.49343558640020E+03   3.00000000000000E+02   3.00000039838191E+02   3.00000163688337E+02
      7.66666666666667E-01
      9.20000000000000E-01   9.20000000000000E-01   0.00000000000000E+00   0.00000000000000E+00   0.00000000000000E+00
      0.00000000000000E+00   0.00000000000000E+00   4.14517537425790E-16   0.00000000000000E+00   0.00000000000000E+00
      0.00000000000000E+00   0.00000000000000E+00   1.43790024833104E-14  -1.66853761511730E-11  -1.66709971486897E-11
     -7.74033042264218E-15   3.00000000000000E+02  -2.69653772424044E-08  -5.57660223136065E-16   0.00000000000000E+00
      1.20000000000000E+00   1.19999910158722E+00   0.00000000000000E+00   0.00000000000000E+00   2.24603195972553E-08
      7.77030053456908E-20   2.24603195973330E-08   4.84393523579699E-15   0.00000000000000E+00   8.97745944208791E-07
      0.00000000000000E+00   0.00000000000000E+00  -2.24436486001843E-08   2.18453136325031E-24  -2.24436486001843E-08
      2.48187764941938E-15   3.00000000000000E+02   3.00000090075680E+02   3.00000346806791E+02   2.85693672575065E+02
      3.54864555603247E+02   5.50780774460158E+03   3.00000000000000E+02   3.00000084877916E+02   3.00000346806791E+02
      8.00000000000000E-01
      9.60000000000000E-01   9.60000000000000E-01   0.00000000000000E+00   0.00000000000000E+00   0.00000000000000E+00
      0.00000000000000E+00   0.00000000000000E+00   4.35817858970881E-16   0.00000000000000E+00   0.00000000000000E+00
      0.00000000000000E+00   0.00000000000000E+00   2.85422721934194E-14  -1.66457649393880E-11  -1.66172226671946E-11
     -7.74396748437187E-15   3.00000000000000E+02  -5.69585866644821E-08  -1.10680075737395E-15   0.00000000000000E+00
      1.20000000000000E+00   1.19999810169616E+00   0.00000000000000E+00   0.00000000000000E+00   4.74575960378992E-08
      7.77009409789648E-20   4.74575960379769E-08   4.83622223421876E-15   0.00000000000000E+00   1.89763915259957E-06
      0.00000000000000E+00   0.00000000000000E+00  -4.74409788153099E-08   5.47097679669189E-24  -4.74409788153098E-08
      2.47192739118224E-15   3.00000000000000E+02   3.00000190274346E+02   3.00000728401180E+02   2.87164765049095E+02
      3.56082741885437E+02   5.51386946578703E+03   3.00000000000000E+02   3.00000179289574E+02   3.00000728401180E+02
      8.33333333333333E-01
      1.00000000000000E+00   1.00000000000000E+00   0.00000000000000E+00   0.00000000000000E+00   0.00000000000000E+00
      0.00000000000000E+00   0.00000000000000E+00   4.57228401621580E-16   0.00000000000000E+00   0.00000000000000E+00
      0.00000000000000E+00   0.00000000000000E+00   5.58744438268299E-14  -1.63865186109295E-11  -1.63306441671027E-11
     -7.74772834063754E-15   3.00000000000000E+02  -1.18928175560146E-07  -2.16673323023114E-15   0.00000000000000E+00
      1.20000000000000E+00   1.19999603578222E+00   0.00000000000000E+00   0.00000000000000E+00   9.91054444357980E-08
      7.77079452613928E-20   9.91054444358757E-08   4.82845164856823E-15   0.00000000000000E+00   3.96356455173153E-06
      0.00000000000000E+00   0.00000000000000E+00  -9.90891137917089E-08   1.21972165090414E-23  -9.90891137917089E-08