DF-ISE text

Info {
  version   = 1.0
  type      = xyplot
  datasets  = [
    "time"
    "gate OuterVoltage" "gate InnerVoltage" "gate QuasiFermiPotential" "gate DisplacementCurrent" "gate eCurrent"
    "gate hCurrent" "gate TotalCurrent" "gate Charge" "substrate OuterVoltage" "substrate InnerVoltage"
    "substrate QuasiFermiPotential" "substrate DisplacementCurrent" "substrate eCurrent" "substrate hCurrent" "substrate TotalCurrent"
    "substrate Charge" "substrate Temperature" "substrate lHeatFlux" "substrate eHeatFlux" "substrate hHeatFlux"
    "drain OuterVoltage" "drain InnerVoltage" "drain QuasiFermiPotential" "drain DisplacementCurrent" "drain eCurrent"
    "drain hCurrent" "drain TotalCurrent" "drain Charge" "source OuterVoltage" "source InnerVoltage"
    "source QuasiFermiPotential" "source DisplacementCurrent" "source eCurrent" "source hCurrent" "source TotalCurrent"
    "source Charge" "lTmin" "lTave" "lTmax" "eTmin"
    "eTave" "eTmax" "hTmin" "hTave" "hTmax" ]
  functions = [
    Time
    OuterVoltage InnerVoltage QuasiFermiPotential DisplacementCurrent eCurrent
    hCurrent TotalCurrent Charge OuterVoltage InnerVoltage
    QuasiFermiPotential DisplacementCurrent eCurrent hCurrent TotalCurrent
    Charge Temperature lHeatFlux eHeatFlux hHeatFlux
    OuterVoltage InnerVoltage QuasiFermiPotential DisplacementCurrent eCurrent
    hCurrent TotalCurrent Charge OuterVoltage InnerVoltage
    QuasiFermiPotential DisplacementCurrent eCurrent hCurrent TotalCurrent
    Charge MinTemperature AveTemperature MaxTemperature MinTemperature
    AveTemperature MaxTemperature MinTemperature AveTemperature MaxTemperature ]
}

Data {
      0.00000000000000E+00
      0.00000000000000E+00   0.00000000000000E+00   0.00000000000000E+00   0.00000000000000E+00   0.00000000000000E+00
      0.00000000000000E+00   0.00000000000000E+00   1.67117769161556E-16   0.00000000000000E+00   0.00000000000000E+00
      0.00000000000000E+00   0.00000000000000E+00  -6.60101426468514E-24  -7.59890604680367E-25  -7.36090486936550E-24
     -5.56272923078442E-15   3.00000000000000E+02   0.00000000000000E+00   0.00000000000000E+00   0.00000000000000E+00
      0.00000000000000E+00   0.00000000000000E+00   0.00000000000000E+00   0.00000000000000E+00   2.79514068931879E-24
      3.92835635517449E-25   3.18797632483624E-24   2.69780573081143E-15   0.00000000000000E+00   0.00000000000000E+00
      0.00000000000000E+00   0.00000000000000E+00   3.80587057526603E-24   3.67057969263231E-25   4.17292854452926E-24
      2.69780573081143E-15   3.00000000000000E+02   2.99999999999999E+02   3.00000000000000E+02   3.00000000000000E+02
      2.99999999999999E+02   3.00000000000000E+02   3.00000000000000E+02   2.99999999999999E+02   3.00000000000000E+02
      0.00000000000000E+00
      0.00000000000000E+00   0.00000000000000E+00   0.00000000000000E+00   0.00000000000000E+00   0.00000000000000E+00
      0.00000000000000E+00   0.00000000000000E+00   1.67117769161554E-16   0.00000000000000E+00   0.00000000000000E+00
      0.00000000000000E+00   0.00000000000000E+00   2.88498495676288E-24  -1.08714276669456E-26   2.87411352909593E-24
     -5.56272923078442E-15   3.00000000000000E+02   0.00000000000000E+00   0.00000000000000E+00   0.00000000000000E+00
      0.00000000000000E+00   0.00000000000000E+00   0.00000000000000E+00   0.00000000000000E+00  -2.74203909413284E-24
     -9.52768091015790E-28  -2.74299186222386E-24   2.69780573081143E-15   0.00000000000000E+00   0.00000000000000E+00
      0.00000000000000E+00   0.00000000000000E+00  -1.42967779498640E-25   1.18461126265672E-26  -1.31121666872073E-25
      2.69780573081143E-15   3.00000000000000E+02   2.99999999999999E+02   3.00000000000000E+02   3.00000000000000E+02
      2.99999999999999E+02   3.00000000000000E+02   3.00000000000000E+02   2.99999999999999E+02   3.00000000000000E+02
      0.00000000000000E+00
      0.00000000000000E+00   0.00000000000000E+00   0.00000000000000E+00   0.00000000000000E+00   0.00000000000000E+00
      0.00000000000000E+00   0.00000000000000E+00   1.67117769161554E-16   0.00000000000000E+00   0.00000000000000E+00
      0.00000000000000E+00   0.00000000000000E+00   3.82331595940784E-24  -1.58677736084135E-27   3.82172918204700E-24
     -5.56272923078442E-15   3.00000000000000E+02   0.00000000000000E+00  -2.00707442921580E-35   0.00000000000000E+00
      0.00000000000000E+00   0.00000000000000E+00   0.00000000000000E+00   0.00000000000000E+00  -1.71029769274590E-24
     -6.86558438398279E-27  -1.71716327712988E-24   2.69780573081143E-15   0.00000000000000E+00   0.00000000000000E+00
      0.00000000000000E+00   0.00000000000000E+00  -2.11304061362728E-24   8.47470871016694E-27  -2.10456590491711E-24
      2.69780573081143E-15   3.00000000000000E+02   2.99999999999999E+02   3.00000000000000E+02   3.00000000000000E+02
      2.99999999999999E+02   3.00000000000000E+02   3.00000000000000E+02   2.99999999999999E+02   3.00000000000000E+02
      1.00000000000000E-02
      0.00000000000000E+00   0.00000000000000E+00   0.00000000000000E+00   0.00000000000000E+00   0.00000000000000E+00
      0.00000000000000E+00   0.00000000000000E+00   1.64612903603054E-16   0.00000000000000E+00   0.00000000000000E+00
      0.00000000000000E+00   0.00000000000000E+00  -1.40565469141745E-20  -3.15201173283926E-16  -3.15215229830840E-16
     -5.58792404148817E-15   3.00000000000000E+02  -2.86413571203201E-16   5.45140169406097E-22   0.00000000000000E+00
      1.20000000000000E-02   1.19999999999863E-02   0.00000000000000E+00   0.00000000000000E+00   3.44153242491502E-16
      2.97331192377520E-20   3.44182975610740E-16   2.72551113403772E-15   0.00000000000000E+00   1.12254678809199E-15
      0.00000000000000E+00   0.00000000000000E+00  -2.89677457934534E-17   1.35544147857982E-26  -2.89677457798990E-17
      2.69780000384741E-15   3.00000000000000E+02   3.00000000000000E+02   3.00000000000002E+02   2.90236932704493E+02
      3.00005558396245E+02   3.13813260543338E+02   3.00000000000000E+02   3.00000000000000E+02   3.00000000000002E+02
      2.25666666666667E-02
      0.00000000000000E+00   0.00000000000000E+00   0.00000000000000E+00   0.00000000000000E+00   0.00000000000000E+00
      0.00000000000000E+00   0.00000000000000E+00   1.61475065671000E-16   0.00000000000000E+00   0.00000000000000E+00
      0.00000000000000E+00   0.00000000000000E+00  -2.45830312045938E-20  -6.42518382081052E-16  -6.42542965112256E-16
     -5.61943033318472E-15   3.00000000000000E+02  -6.35480111107101E-16   9.53753617999958E-22   0.00000000000000E+00
      2.70800000000000E-02   2.70799999999729E-02   0.00000000000000E+00   0.00000000000000E+00   6.94323682258283E-16
      5.15771230982223E-20   6.94375259381381E-16   2.76016246665073E-15   0.00000000000000E+00   1.37767105811290E-15
      0.00000000000000E+00   0.00000000000000E+00  -5.18322941975126E-17  -7.16119944009563E-26  -5.18322942691246E-17
      2.69779280086299E-15   3.00000000000000E+02   3.00000000000001E+02   3.00000000000004E+02   2.82412810923927E+02
      3.00018030342805E+02   3.37827645701649E+02   3.00000000000000E+02   3.00000000000001E+02   3.00000000000004E+02
      3.87497407407408E-02
      0.00000000000000E+00   0.00000000000000E+00   0.00000000000000E+00   0.00000000000000E+00   0.00000000000000E+00
      0.00000000000000E+00   0.00000000000000E+00   1.57450162063096E-16   0.00000000000000E+00   0.00000000000000E+00
      0.00000000000000E+00   0.00000000000000E+00  -3.16647986961223E-20  -9.84043714320787E-16  -9.84075379119484E-16
     -5.65975828050369E-15   3.00000000000000E+02  -1.00244749921120E-15   1.22768651186248E-21   0.00000000000000E+00
      4.64996888888889E-02   4.64996888888469E-02   0.00000000000000E+00   0.00000000000000E+00   1.05282589949046E-15
      6.56792173456048E-20   1.05289157870780E-15   2.80452460509095E-15   0.00000000000000E+00   2.81657194103082E-15
      0.00000000000000E+00   0.00000000000000E+00  -6.88161995545081E-17  -3.38100357586411E-26  -6.88161995883181E-17
      2.69778351334964E-15   3.00000000000000E+02   3.00000000000002E+02   3.00000000000007E+02   2.77235165638261E+02
      3.00039363455663E+02   3.80812604422105E+02   3.00000000000000E+02   3.00000000000002E+02   3.00000000000007E+02
      5.95899439094650E-02
      0.00000000000000E+00   0.00000000000000E+00   0.00000000000000E+00   0.00000000000000E+00   0.00000000000000E+00
      0.00000000000000E+00   0.00000000000000E+00   1.52292679245596E-16   0.00000000000000E+00   0.00000000000000E+00
      0.00000000000000E+00   0.00000000000000E+00  -3.56923018509686E-20  -1.34193304325341E-15  -1.34196873555526E-15
     -5.71130362697808E-15   3.00000000000000E+02  -1.41416700781580E-15   1.38127946710970E-21   0.00000000000000E+00
      7.15079326913580E-02   7.15079326913007E-02   0.00000000000000E+00   0.00000000000000E+00   1.42252900013125E-15
      7.30217943993275E-20   1.42260202192564E-15   2.86123941717979E-15   0.00000000000000E+00   3.50030498468685E-15
      0.00000000000000E+00   0.00000000000000E+00  -8.06332864346384E-17   6.42558118673938E-26  -8.06332863703826E-17
      2.69777153055268E-15   3.00000000000000E+02   3.00000000000003E+02   3.00000000000010E+02   2.74956746248619E+02
      3.00072609696438E+02   4.54950869394688E+02   3.00000000000000E+02   3.00000000000003E+02   3.00000000000010E+02
      8.64274944345222E-02
      0.00000000000000E+00   0.00000000000000E+00   0.00000000000000E+00   0.00000000000000E+00   0.00000000000000E+00
      0.00000000000000E+00   0.00000000000000E+00   1.45692292498339E-16   0.00000000000000E+00   0.00000000000000E+00
      0.00000000000000E+00   0.00000000000000E+00  -3.74583425778141E-20  -1.73888146520042E-15  -1.73891892354299E-15
     -5.77707404636056E-15   3.00000000000000E+02  -1.88853948512110E-15   1.45054925536563E-21   0.00000000000000E+00
      1.03712993321427E-01   1.03712993321354E-01   0.00000000000000E+00   0.00000000000000E+00   1.82779068414756E-15
      7.58190597414518E-20   1.82786650320731E-15   2.93362569755259E-15   0.00000000000000E+00   3.82686405031361E-15
      0.00000000000000E+00   0.00000000000000E+00  -8.89475795907155E-17  -7.35999403010734E-26  -8.89475796643155E-17
      2.69775605630963E-15   3.00000000000000E+02   3.00000000000005E+02   3.00000000000013E+02   2.75611121872781E+02
      3.00124081695760E+02   5.68308285081212E+02   3.00000000000000E+02   3.00000000000005E+02   3.00000000000013E+02
      1.20988295610679E-01
      0.00000000000000E+00   0.00000000000000E+00   0.00000000000000E+00   0.00000000000000E+00   0.00000000000000E+00
      0.00000000000000E+00   0.00000000000000E+00   1.37258829140330E-16   0.00000000000000E+00   0.00000000000000E+00
      0.00000000000000E+00   0.00000000000000E+00  -3.82546652839151E-20  -2.24349691465050E-15  -2.24353516931578E-15
     -5.86082547099987E-15   3.00000000000000E+02  -2.51506917212810E-15   1.47489726748283E-21   0.00000000000000E+00
      1.45185954732815E-01   1.45185954732721E-01   0.00000000000000E+00   0.00000000000000E+00   2.33910453538790E-15
      7.64276164131099E-20   2.33918096300431E-15   3.02583059302425E-15   0.00000000000000E+00   3.89829884591947E-15
      0.00000000000000E+00   0.00000000000000E+00  -9.56457943449498E-17   6.56416679212719E-25  -9.56457936885331E-17
      2.69773604883529E-15   3.00000000000000E+02   3.00000000000007E+02   3.00000000000017E+02   2.78917333949574E+02
      3.00201318595065E+02   7.04497251364557E+02   3.00000000000000E+02   3.00000000000007E+02   3.00000000000017E+02
      1.65494927347530E-01
      0.00000000000000E+00   0.00000000000000E+00   0.00000000000000E+00   0.00000000000000E+00   0.00000000000000E+00
      0.00000000000000E+00   0.00000000000000E+00   1.26505531189419E-16   0.00000000000000E+00   0.00000000000000E+00
      0.00000000000000E+00   0.00000000000000E+00  -3.82078524447273E-20  -3.05832057302175E-15  -3.05835878087420E-15
     -5.96721215134738E-15   3.00000000000000E+02  -3.59807048824020E-15   1.48150306421001E-21   0.00000000000000E+00
      1.98593912817036E-01   1.98593912816910E-01   0.00000000000000E+00   0.00000000000000E+00   3.16099703131516E-15
      7.64930943456022E-20   3.16107352440950E-15   3.14299647874438E-15   0.00000000000000E+00   4.13301317433870E-15
      0.00000000000000E+00   0.00000000000000E+00  -1.02714743547199E-16   1.18922857481977E-26  -1.02714743535307E-16
      2.69771014141358E-15   3.00000000000000E+02   3.00000000000011E+02   3.00000000000025E+02   2.81624548578284E+02
      3.00316413930959E+02   8.25474980136413E+02   3.00000000000000E+02   3.00000000000010E+02   3.00000000000025E+02
      2.21424927896840E-01
      0.00000000000000E+00   0.00000000000000E+00   0.00000000000000E+00   0.00000000000000E+00   0.00000000000000E+00
      0.00000000000000E+00   0.00000000000000E+00   1.13160055764185E-16   0.00000000000000E+00   0.00000000000000E+00
      0.00000000000000E+00   0.00000000000000E+00  -3.82491382898704E-20  -4.45056084786131E-15  -4.45059909699960E-15
     -6.09869681272388E-15   3.00000000000000E+02  -5.52241166976169E-15   1.48324506687767E-21   0.00000000000000E+00
      2.65709913476208E-01   2.65709913476025E-01   0.00000000000000E+00   0.00000000000000E+00   4.56314282599551E-15
      7.65810159919693E-20   4.56321940701150E-15   3.28785940050834E-15   0.00000000000000E+00   4.50039212316881E-15
      0.00000000000000E+00   0.00000000000000E+00  -1.12620309869233E-16  -1.42668504409104E-25  -1.12620310011901E-16
      2.69767735645136E-15   3.00000000000000E+02   3.00000000000016E+02   3.00000000000042E+02   2.83184412828169E+02
      3.00502101587679E+02   1.05391753220660E+03   3.00000000000000E+02   3.00000000000016E+02   3.00000000000042E+02
      2.91710295253805E-01
      0.00000000000000E+00   0.00000000000000E+00   0.00000000000000E+00   0.00000000000000E+00   0.00000000000000E+00
      0.00000000000000E+00   0.00000000000000E+00   9.66501882015792E-17   0.00000000000000E+00   0.00000000000000E+00
      0.00000000000000E+00   0.00000000000000E+00  -3.82862029826501E-20  -7.52032005822264E-15  -7.52035834442563E-15
     -6.26053850201786E-15   3.00000000000000E+02  -9.97077244751134E-15   1.48465273218967E-21   0.00000000000000E+00
      3.50052354304566E-01   3.50052354304260E-01   0.00000000000000E+00   0.00000000000000E+00   7.64794922491394E-15
      7.66888029131215E-20   7.64802591371686E-15   3.46625249521415E-15   0.00000000000000E+00   5.14330528362150E-15
      0.00000000000000E+00   0.00000000000000E+00  -1.27667569233076E-16  -5.81303779297350E-26  -1.27667569291207E-16
      2.69763581860212E-15   3.00000000000000E+02   3.00000000000031E+02   3.00000000000085E+02   2.84824884974598E+02
      3.00815232613276E+02   1.21546995719639E+03   3.00000000000000E+02   3.00000000000029E+02   3.00000000000085E+02
      3.77848917692397E-01
      0.00000000000000E+00   0.00000000000000E+00   0.00000000000000E+00   0.00000000000000E+00   0.00000000000000E+00
      0.00000000000000E+00   0.00000000000000E+00   7.67990601709069E-17   0.00000000000000E+00   0.00000000000000E+00
      0.00000000000000E+00   0.00000000000000E+00  -3.83342761275940E-20  -2.38239524237830E-14  -2.38239907580591E-14
     -6.45357483452564E-15   3.00000000000000E+02  -3.37878509778765E-14   1.48670206240923E-21   0.00000000000000E+00
      4.53418701230877E-01   4.53418701229918E-01   0.00000000000000E+00   0.00000000000000E+00   2.39731839627209E-14
      7.68148198259735E-20   2.39732607775407E-14   3.67919134081185E-15   0.00000000000000E+00   5.96990791848924E-15
      0.00000000000000E+00   0.00000000000000E+00  -1.49270019558543E-16   7.68780566015119E-26  -1.49270019481665E-16
      2.69758443354289E-15   3.00000000000000E+02   3.00000000000110E+02   3.00000000000343E+02   2.84251711162712E+02
      3.01385732799006E+02   1.40673075615658E+03   3.00000000000000E+02   3.00000000000104E+02   3.00000000000343E+02
      4.03570867448366E-01
      0.00000000000000E+00   0.00000000000000E+00   0.00000000000000E+00   0.00000000000000E+00   0.00000000000000E+00
      0.00000000000000E+00   0.00000000000000E+00   7.09483171445281E-17   0.00000000000000E+00   0.00000000000000E+00
      0.00000000000000E+00   0.00000000000000E+00  -3.83501851411745E-20  -3.36357281465535E-14  -3.36357664967387E-14
     -6.51000606004975E-15   3.00000000000000E+02  -4.86634558322417E-14   1.48730591234398E-21   0.00000000000000E+00
      4.84285040938039E-01   4.84285040936688E-01   0.00000000000000E+00   0.00000000000000E+00   3.37920381097890E-14
      7.68522250661748E-20   3.37921149620141E-14   3.74148875841169E-15   0.00000000000000E+00   6.24544213011182E-15
      0.00000000000000E+00   0.00000000000000E+00  -1.56348465342916E-16   6.74773047150064E-26  -1.56348465275438E-16
      2.69756898449354E-15   3.00000000000000E+02   3.00000000000160E+02   3.00000000000507E+02   2.84071255120129E+02
      3.01569656759565E+02   1.41098240133169E+03   3.00000000000000E+02   3.00000000000151E+02   3.00000000000507E+02
      4.34294307434662E-01
      0.00000000000000E+00   0.00000000000000E+00   0.00000000000000E+00   0.00000000000000E+00   0.00000000000000E+00
      0.00000000000000E+00   0.00000000000000E+00   6.40031170332241E-17   0.00000000000000E+00   0.00000000000000E+00
      0.00000000000000E+00   0.00000000000000E+00  -3.83780571338220E-20  -5.20051406859715E-14  -5.20051790640286E-14
     -6.57662753893111E-15   3.00000000000000E+02  -7.71258044705564E-14   1.48800825381404E-21   0.00000000000000E+00
      5.21153168921594E-01   5.21153168919507E-01   0.00000000000000E+00   0.00000000000000E+00   5.21702914038055E-14
      7.47293140752131E-20   5.21703661331195E-14   3.81507396085298E-15   0.00000000000000E+00   6.61282107894193E-15
      0.00000000000000E+00   0.00000000000000E+00  -1.65187069114673E-16   2.37580966581777E-26  -1.65187069090914E-16
      2.69755046104491E-15   3.00000000000000E+02   3.00000000000255E+02   3.00000000000820E+02   2.83855453118880E+02
      3.01787875960188E+02   1.43126157731962E+03   3.00000000000000E+02   3.00000000000241E+02   3.00000000000820E+02
      4.72903430350773E-01
      0.00000000000000E+00   0.00000000000000E+00   0.00000000000000E+00   0.00000000000000E+00   0.00000000000000E+00
      0.00000000000000E+00   0.00000000000000E+00   5.53380195549994E-17   0.00000000000000E+00   0.00000000000000E+00
      0.00000000000000E+00   0.00000000000000E+00  -3.83913774633578E-20  -8.43667547202839E-14  -8.43667931116614E-14
     -6.65908024875321E-15   3.00000000000000E+02  -1.28904007889625E-13   1.48885463180237E-21   0.00000000000000E+00
      5.67484116420928E-01   5.67484116417546E-01   0.00000000000000E+00   0.00000000000000E+00   8.45436059685648E-14
      7.69445741626794E-20   8.45436829131390E-14   3.90621516690000E-15   0.00000000000000E+00   7.07204476497956E-15
      0.00000000000000E+00   0.00000000000000E+00  -1.76889801384438E-16  -9.31165033921348E-26  -1.76889801477554E-16
      2.69752706229821E-15   3.00000000000000E+02   3.00000000000428E+02   3.00000000001393E+02   2.83589950797572E+02
      3.02054291593147E+02   1.52790680933681E+03   3.00000000000000E+02   3.00000000000404E+02   3.00000000001393E+02
      5.21422228148687E-01
      0.00000000000000E+00   0.00000000000000E+00   0.00000000000000E+00   0.00000000000000E+00   0.00000000000000E+00
      0.00000000000000E+00   0.00000000000000E+00   4.45399817368096E-17   0.00000000000000E+00   0.00000000000000E+00
      0.00000000000000E+00   0.00000000000000E+00  -3.84225663187464E-20  -1.64838822725801E-13  -1.64838861148367E-13
     -6.76058164802145E-15   3.00000000000000E+02  -2.61307631602358E-13   1.49000494896851E-21   0.00000000000000E+00
      6.25706673778424E-01   6.25706673771823E-01   0.00000000000000E+00   0.00000000000000E+00   1.65031428738716E-13
      7.70236456662338E-20   1.65031505762362E-13   4.01854422757815E-15   0.00000000000000E+00   7.71495792543225E-15
      0.00000000000000E+00   0.00000000000000E+00  -1.92644614047933E-16   5.36914726042914E-26  -1.92644613994242E-16
      2.69749743870650E-15   3.00000000000000E+02   3.00000000000868E+02   3.00000000002862E+02   2.83267679003916E+02
      3.02376694273552E+02   1.61721368588401E+03   3.00000000000000E+02   3.00000000000819E+02   3.00000000002862E+02
      5.28855038422451E-01
      0.00000000000000E+00   0.00000000000000E+00   0.00000000000000E+00   0.00000000000000E+00   0.00000000000000E+00
      0.00000000000000E+00   0.00000000000000E+00   4.28941479418124E-17   0.00000000000000E+00   0.00000000000000E+00
      0.00000000000000E+00   0.00000000000000E+00  -3.84328735633184E-20  -1.81990240055800E-13  -1.81990278488674E-13
     -6.77591593771402E-15   3.00000000000000E+02  -2.90083245084164E-13   1.49018954309045E-21   0.00000000000000E+00
      6.34626046106941E-01   6.34626046099653E-01   0.00000000000000E+00   0.00000000000000E+00   1.82185402585864E-13
      7.70343255876484E-20   1.82185479620189E-13   4.03552891309270E-15   0.00000000000000E+00   7.80680266263977E-15
      0.00000000000000E+00   0.00000000000000E+00  -1.95201131543696E-16   2.79425830070072E-26  -1.95201131515754E-16
      2.69749287667950E-15   3.00000000000000E+02   3.00000000000964E+02   3.00000000003183E+02   2.83227534890615E+02
      3.02414858623838E+02   1.62729796081185E+03   3.00000000000000E+02   3.00000000000910E+02   3.00000000003183E+02
      5.33178456398357E-01
      0.00000000000000E+00   0.00000000000000E+00   0.00000000000000E+00   0.00000000000000E+00   0.00000000000000E+00
      0.00000000000000E+00   0.00000000000000E+00   4.19378008134676E-17   0.00000000000000E+00   0.00000000000000E+00
      0.00000000000000E+00   0.00000000000000E+00  -3.84345206035953E-20  -1.91380921906020E-13  -1.91380960340540E-13
     -6.78480869501308E-15   3.00000000000000E+02  -3.06041851254634E-13   1.49028525073162E-21   0.00000000000000E+00
      6.39814147678028E-01   6.39814147670365E-01   0.00000000000000E+00   0.00000000000000E+00   1.91577565520708E-13
      7.70405258970864E-20   1.91577642561234E-13   4.04538067418656E-15   0.00000000000000E+00   7.89864739984730E-15
      0.00000000000000E+00   0.00000000000000E+00  -1.96682220760435E-16   6.68686368211195E-26  -1.96682220693567E-16
      2.69749022001305E-15   3.00000000000000E+02   3.00000000001017E+02   3.00000000003360E+02   2.83200288969254E+02
      3.02447166816938E+02   1.63297518391172E+03   3.00000000000000E+02   3.00000000000960E+02   3.00000000003360E+02
      5.38611551654745E-01
      0.00000000000000E+00   0.00000000000000E+00   0.00000000000000E+00   0.00000000000000E+00   0.00000000000000E+00
      0.00000000000000E+00   0.00000000000000E+00   4.07370010020521E-17   0.00000000000000E+00   0.00000000000000E+00
      0.00000000000000E+00   0.00000000000000E+00  -3.84331484071977E-20  -2.04042002384830E-13  -2.04042040817978E-13
     -6.79595602127308E-15   3.00000000000000E+02  -3.27621323759963E-13   1.49040464637496E-21   0.00000000000000E+00
      6.46333861985694E-01   6.46333861977524E-01   0.00000000000000E+00   0.00000000000000E+00   2.04240524655197E-13
      7.49364206112492E-20   2.04240599591618E-13   4.05773214207091E-15   0.00000000000000E+00   7.89864739984730E-15
      0.00000000000000E+00   0.00000000000000E+00  -1.98558773654164E-16   1.43300424015078E-26  -1.98558773639834E-16
      2.69748687820013E-15   3.00000000000000E+02   3.00000000001089E+02   3.00000000003600E+02   2.83166432492207E+02
      3.02488354670073E+02   1.63965339202386E+03   3.00000000000000E+02   3.00000000001028E+02   3.00000000003600E+02
      5.45777200620671E-01
      0.00000000000000E+00   0.00000000000000E+00   0.00000000000000E+00   0.00000000000000E+00   0.00000000000000E+00
      0.00000000000000E+00   0.00000000000000E+00   3.91549800187637E-17   0.00000000000000E+00   0.00000000000000E+00
      0.00000000000000E+00   0.00000000000000E+00  -3.84363137884633E-20  -2.21590314502078E-13  -2.21590352938392E-13
     -6.81061049080299E-15   3.00000000000000E+02  -3.57694748736280E-13   1.49056027717195E-21   0.00000000000000E+00
      6.54932640744805E-01   6.54932640735933E-01   0.00000000000000E+00   0.00000000000000E+00   2.21791338523868E-13
      7.50423557143550E-20   2.21791413566223E-13   4.07397304570935E-15   0.00000000000000E+00   8.08233687426235E-15
      0.00000000000000E+00   0.00000000000000E+00  -2.01060627778518E-16  -5.31257722344940E-26  -2.01060627831644E-16
      2.69748246507488E-15   3.00000000000000E+02   3.00000000001189E+02   3.00000000003935E+02   2.83122548665180E+02
      3.02543739651895E+02   1.64770225820004E+03   3.00000000000000E+02   3.00000000001122E+02   3.00000000003935E+02
      5.55227895423508E-01
      0.00000000000000E+00   0.00000000000000E+00   0.00000000000000E+00   0.00000000000000E+00   0.00000000000000E+00
      0.00000000000000E+00   0.00000000000000E+00   3.70713864033972E-17   0.00000000000000E+00   0.00000000000000E+00
      0.00000000000000E+00   0.00000000000000E+00  -3.83820384131430E-20  -2.46897787693621E-13  -2.46897826075659E-13
     -6.82985516268736E-15   3.00000000000000E+02  -4.01283314103737E-13   1.49076153697848E-21   0.00000000000000E+00
      6.66273474508210E-01   6.66273474498326E-01   0.00000000000000E+00   0.00000000000000E+00   2.47102158154491E-13
      7.69688657759790E-20   2.47102235123357E-13   4.09530714162281E-15   0.00000000000000E+00   8.16397664066904E-15
      0.00000000000000E+00   0.00000000000000E+00  -2.04409047578387E-16  -1.19125302224919E-25  -2.04409047697513E-16
      2.69747663466115E-15   3.00000000000000E+02   3.00000000001334E+02   3.00000000004420E+02   2.83066282372375E+02
      3.02618761419654E+02   1.65704861297273E+03   3.00000000000000E+02   3.00000000001259E+02   3.00000000004420E+02
      5.67692311791250E-01
      0.00000000000000E+00   0.00000000000000E+00   0.00000000000000E+00   0.00000000000000E+00   0.00000000000000E+00
      0.00000000000000E+00   0.00000000000000E+00   3.43283399948589E-17   0.00000000000000E+00   0.00000000000000E+00
      0.00000000000000E+00   0.00000000000000E+00  -3.84482505970564E-20  -2.84270029986145E-13  -2.84270068434396E-13
     -6.85509245219938E-15   3.00000000000000E+02  -4.66290244342711E-13   1.49102247951400E-21   0.00000000000000E+00
      6.81230774149500E-01   6.81230774138121E-01   0.00000000000000E+00   0.00000000000000E+00   2.84478906454577E-13
      7.70896954714872E-20   2.84478983544273E-13   4.12329518496536E-15   0.00000000000000E+00   8.35787108588493E-15
      0.00000000000000E+00   0.00000000000000E+00  -2.08915109919642E-16   4.26551165855410E-26  -2.08915109876987E-16
      2.69746892723916E-15   3.00000000000000E+02   3.00000000001550E+02   3.00000000005142E+02   2.82995596595933E+02
      3.02718586796309E+02   1.66727793624608E+03   3.00000000000000E+02   3.00000000001463E+02   3.00000000005142E+02
      5.83355928360046E-01
      0.00000000000000E+00   0.00000000000000E+00   0.00000000000000E+00   0.00000000000000E+00   0.00000000000000E+00
      0.00000000000000E+00   0.00000000000000E+00   3.08891056493102E-17   0.00000000000000E+00   0.00000000000000E+00
      0.00000000000000E+00   0.00000000000000E+00  -3.84525623522757E-20  -3.38949731968766E-13  -3.38949770421329E-13
     -6.88657528817279E-15   3.00000000000000E+02  -5.62301443664394E-13   1.49132139908020E-21   0.00000000000000E+00
      7.00027114032056E-01   7.00027114018489E-01   0.00000000000000E+00   0.00000000000000E+00   3.39164427472536E-13
      7.71118244478132E-20   3.39164504584361E-13   4.15822697030016E-15   0.00000000000000E+00   8.64361026830835E-15
      0.00000000000000E+00   0.00000000000000E+00  -2.14734163035866E-16   3.15256423695335E-27  -2.14734163032713E-16
      2.69745921222331E-15   3.00000000000000E+02   3.00000000001870E+02   3.00000000006210E+02   2.82914150111725E+02
      3.02847517220537E+02   1.67697987403072E+03   3.00000000000000E+02   3.00000000001765E+02   3.00000000006210E+02
      5.92954244513036E-01
      0.00000000000000E+00   0.00000000000000E+00   0.00000000000000E+00   0.00000000000000E+00   0.00000000000000E+00
      0.00000000000000E+00   0.00000000000000E+00   2.87858567307518E-17   0.00000000000000E+00   0.00000000000000E+00
      0.00000000000000E+00   0.00000000000000E+00  -3.84608141607404E-20  -3.76683896386201E-13  -3.76683934847015E-13
     -6.90574041789124E-15   3.00000000000000E+02  -6.29223764660769E-13   1.49149195339891E-21   0.00000000000000E+00
      7.11545093415644E-01   7.11545093400568E-01   0.00000000000000E+00   0.00000000000000E+00   3.76902250897667E-13
      7.71253332619973E-20   3.76902328023000E-13   4.17950131859914E-15   0.00000000000000E+00   8.72525003471504E-15
      0.00000000000000E+00   0.00000000000000E+00  -2.18393176002868E-16   1.81116993369098E-26  -2.18393175984757E-16
      2.69745324256134E-15   3.00000000000000E+02   3.00000000002093E+02   3.00000000006955E+02   2.82869172014385E+02
      3.02934733671108E+02   1.68129106920944E+03   3.00000000000000E+02   3.00000000001975E+02   3.00000000006955E+02
      6.05016128478627E-01
      0.00000000000000E+00   0.00000000000000E+00   0.00000000000000E+00   0.00000000000000E+00   0.00000000000000E+00
      0.00000000000000E+00   0.00000000000000E+00   2.61472544222850E-17   0.00000000000000E+00   0.00000000000000E+00
      0.00000000000000E+00   0.00000000000000E+00  -3.84652312026121E-20  -4.31230782805958E-13  -4.31230821271190E-13
     -6.92968931542639E-15   3.00000000000000E+02  -7.26541725901035E-13   1.49164337333338E-21   0.00000000000000E+00
      7.26019354174353E-01   7.26019354157094E-01   0.00000000000000E+00   0.00000000000000E+00   4.31453843473418E-13
      7.71422593468024E-20   4.31453920615677E-13   4.20609633845710E-15   0.00000000000000E+00   8.90893950913009E-15
      0.00000000000000E+00   0.00000000000000E+00  -2.23099344366985E-16  -1.20323727854005E-25  -2.23099344487309E-16