DF-ISE text

Info {
  version   = 1.0
  type      = xyplot
  datasets  = [
    "time"
    "gate OuterVoltage" "gate InnerVoltage" "gate QuasiFermiPotential" "gate DisplacementCurrent" "gate eCurrent"
    "gate hCurrent" "gate TotalCurrent" "gate Charge" "substrate OuterVoltage" "substrate InnerVoltage"
    "substrate QuasiFermiPotential" "substrate DisplacementCurrent" "substrate eCurrent" "substrate hCurrent" "substrate TotalCurrent"
    "substrate Charge" "substrate Temperature" "substrate lHeatFlux" "substrate eHeatFlux" "substrate hHeatFlux"
    "drain OuterVoltage" "drain InnerVoltage" "drain QuasiFermiPotential" "drain DisplacementCurrent" "drain eCurrent"
    "drain hCurrent" "drain TotalCurrent" "drain Charge" "source OuterVoltage" "source InnerVoltage"
    "source QuasiFermiPotential" "source DisplacementCurrent" "source eCurrent" "source hCurrent" "source TotalCurrent"
    "source Charge" "lTmin" "lTave" "lTmax" "eTmin"
    "eTave" "eTmax" "hTmin" "hTave" "hTmax" ]
  functions = [
    Time
    OuterVoltage InnerVoltage QuasiFermiPotential DisplacementCurrent eCurrent
    hCurrent TotalCurrent Charge OuterVoltage InnerVoltage
    QuasiFermiPotential DisplacementCurrent eCurrent hCurrent TotalCurrent
    Charge Temperature lHeatFlux eHeatFlux hHeatFlux
    OuterVoltage InnerVoltage QuasiFermiPotential DisplacementCurrent eCurrent
    hCurrent TotalCurrent Charge OuterVoltage InnerVoltage
    QuasiFermiPotential DisplacementCurrent eCurrent hCurrent TotalCurrent
    Charge MinTemperature AveTemperature MaxTemperature MinTemperature
    AveTemperature MaxTemperature MinTemperature AveTemperature MaxTemperature ]
}

Data {
      0.00000000000000E+00
      0.00000000000000E+00   0.00000000000000E+00   0.00000000000000E+00   0.00000000000000E+00   0.00000000000000E+00
      0.00000000000000E+00   0.00000000000000E+00   1.37089120489491E-16   0.00000000000000E+00   0.00000000000000E+00
      0.00000000000000E+00   0.00000000000000E+00  -3.88729207201231E-23  -1.42151982835662E-25  -3.90150727029588E-23
     -4.27758037022903E-15   3.00000000000000E+02   0.00000000000000E+00   0.00000000000000E+00   0.00000000000000E+00
      0.00000000000000E+00   0.00000000000000E+00   0.00000000000000E+00   0.00000000000000E+00   1.35522763218540E-23
      5.98192876641000E-26   1.36120956095181E-23   2.07024562486977E-15   0.00000000000000E+00   0.00000000000000E+00
      0.00000000000000E+00   0.00000000000000E+00   2.53206441091680E-23   8.23329842724885E-26   2.54029770934405E-23
      2.07024562486977E-15   3.00000000000000E+02   2.99999999999994E+02   3.00000000000000E+02   3.00000000000000E+02
      2.99999999999994E+02   3.00000000000000E+02   3.00000000000000E+02   2.99999999999994E+02   3.00000000000000E+02
      0.00000000000000E+00
      0.00000000000000E+00   0.00000000000000E+00   0.00000000000000E+00   0.00000000000000E+00   0.00000000000000E+00
      0.00000000000000E+00   0.00000000000000E+00   1.37089120489482E-16   0.00000000000000E+00   0.00000000000000E+00
      0.00000000000000E+00   0.00000000000000E+00   5.85457303141230E-21   2.64361250719032E-27   5.85457567502480E-21
     -4.27758037022901E-15   3.00000000000000E+02   0.00000000000000E+00   0.00000000000000E+00   0.00000000000000E+00
      0.00000000000000E+00   0.00000000000000E+00   0.00000000000000E+00   0.00000000000000E+00  -2.14370210999412E-21
     -2.09052822183637E-27  -2.14370420052234E-21   2.07024562486978E-15   0.00000000000000E+00   0.00000000000000E+00
      0.00000000000000E+00   0.00000000000000E+00  -3.71087091715771E-21  -5.57344777345195E-28  -3.71087147450249E-21
      2.07024562486976E-15   3.00000000000000E+02   2.99999999999994E+02   3.00000000000000E+02   3.00000000000000E+02
      2.99999999999994E+02   3.00000000000000E+02   3.00000000000000E+02   2.99999999999994E+02   3.00000000000000E+02
      0.00000000000000E+00
      0.00000000000000E+00   0.00000000000000E+00   0.00000000000000E+00   0.00000000000000E+00   0.00000000000000E+00
      0.00000000000000E+00   0.00000000000000E+00   1.37089120489482E-16   0.00000000000000E+00   0.00000000000000E+00
      0.00000000000000E+00   0.00000000000000E+00   4.28359572198953E-21  -2.75049087803136E-27   4.28359297149865E-21
     -4.27758037022901E-15   3.00000000000000E+02   0.00000000000000E+00  -1.32092134164431E-35   0.00000000000000E+00
      0.00000000000000E+00   0.00000000000000E+00   0.00000000000000E+00   0.00000000000000E+00   2.42094895010965E-23
      5.39990354863308E-27   2.42148894046451E-23   2.07024562486973E-15   0.00000000000000E+00   0.00000000000000E+00
      0.00000000000000E+00   0.00000000000000E+00  -4.30780520710794E-21  -2.65379537058136E-27  -4.30780786090331E-21
      2.07024562486974E-15   3.00000000000000E+02   2.99999999999994E+02   3.00000000000000E+02   3.00000000000000E+02
      2.99999999999994E+02   3.00000000000000E+02   3.00000000000000E+02   2.99999999999994E+02   3.00000000000000E+02
      1.00000000000000E-05
      1.00000000000000E-05   1.00000000000000E-05   0.00000000000000E+00   0.00000000000000E+00   0.00000000000000E+00
      0.00000000000000E+00   0.00000000000000E+00   1.37096820650152E-16   0.00000000000000E+00   0.00000000000000E+00
      0.00000000000000E+00   0.00000000000000E+00  -7.15303328306680E-20  -7.62278805892089E-26  -7.15304090585486E-20
     -4.27758102362404E-15   3.00000000000000E+02   0.00000000000000E+00   1.22185224102099E-33   0.00000000000000E+00
      0.00000000000000E+00   8.26602634867741E-16   0.00000000000000E+00   0.00000000000000E+00   3.67766227074411E-20
      3.82343397219332E-26   3.67766609417809E-20   2.07024210148695E-15   0.00000000000000E+00   8.26602634867741E-16
      0.00000000000000E+00   0.00000000000000E+00   3.47537101273136E-20   3.79894540310300E-26   3.47537481167676E-20
      2.07024210148695E-15   3.00000000000000E+02   2.99999999999994E+02   3.00000000000000E+02   3.00000000000000E+02
      2.99999999999994E+02   3.00000000000001E+02   3.00000000000000E+02   2.99999999999994E+02   3.00000000000000E+02
      2.91111111111111E-05
      2.91111111111111E-05   2.91111111111111E-05   0.00000000000000E+00   0.00000000000000E+00   0.00000000000000E+00
      0.00000000000000E+00   0.00000000000000E+00   1.37111536661597E-16   0.00000000000000E+00   0.00000000000000E+00
      0.00000000000000E+00   0.00000000000000E+00   2.43456435531994E-21   7.86038840329122E-27   2.43457221570834E-21
     -4.27758227231824E-15   3.00000000000000E+02   0.00000000000000E+00  -8.17320080142419E-35   0.00000000000000E+00
      0.00000000000000E+00   0.00000000000000E+00   0.00000000000000E+00   0.00000000000000E+00  -1.96683687621561E-21
     -7.10386133184795E-27  -1.96684398007694E-21   2.07023536782830E-15   0.00000000000000E+00   0.00000000000000E+00
      0.00000000000000E+00   0.00000000000000E+00  -4.67727477594691E-22  -7.58036721504189E-28  -4.67728235631413E-22
      2.07023536782832E-15   3.00000000000000E+02   2.99999999999994E+02   3.00000000000000E+02   3.00000000000000E+02
      2.99999999999994E+02   3.00000000000000E+02   3.00000000000000E+02   2.99999999999994E+02   3.00000000000000E+02
      6.73333333333333E-05
      6.73333333333333E-05   6.73333333333333E-05   0.00000000000000E+00   0.00000000000000E+00   0.00000000000000E+00
      0.00000000000000E+00   0.00000000000000E+00   1.37140969270816E-16   0.00000000000000E+00   0.00000000000000E+00
      0.00000000000000E+00   0.00000000000000E+00  -3.57286500664066E-21   9.84782377865398E-27  -3.57285515881688E-21
     -4.27758476964238E-15   3.00000000000000E+02   0.00000000000000E+00  -6.60460670822157E-35   0.00000000000000E+00
      0.00000000000000E+00   0.00000000000000E+00   0.00000000000000E+00   0.00000000000000E+00   1.94634461250912E-21
     -5.54942069436928E-27   1.94633906308843E-21   2.07022190018578E-15   0.00000000000000E+00   0.00000000000000E+00
      0.00000000000000E+00   0.00000000000000E+00   1.62652039587626E-21  -4.30014781270209E-27   1.62651609572844E-21
      2.07022190018580E-15   3.00000000000000E+02   2.99999999999994E+02   3.00000000000000E+02   3.00000000000000E+02
      2.99999999999994E+02   3.00000000000000E+02   3.00000000000000E+02   2.99999999999994E+02   3.00000000000000E+02
      1.43777777777778E-04
      1.43777777777778E-04   1.43777777777778E-04   0.00000000000000E+00   0.00000000000000E+00   0.00000000000000E+00
      0.00000000000000E+00   0.00000000000000E+00   1.37199836834782E-16   0.00000000000000E+00   0.00000000000000E+00
      0.00000000000000E+00   0.00000000000000E+00  -2.45793453015260E-20   4.00684398690312E-27  -2.45793412946820E-20
     -4.27758976403362E-15   3.00000000000000E+02   0.00000000000000E+00  -4.37555194419679E-35   0.00000000000000E+00
      0.00000000000000E+00   0.00000000000000E+00   0.00000000000000E+00   0.00000000000000E+00   1.19468738747403E-20
     -3.06210396679669E-27   1.19468708126364E-20   2.07019496359943E-15   0.00000000000000E+00   0.00000000000000E+00
      0.00000000000000E+00   0.00000000000000E+00   1.26324714298498E-20  -9.47804198209962E-28   1.26324704820456E-20
      2.07019496359944E-15   3.00000000000000E+02   2.99999999999994E+02   3.00000000000000E+02   3.00000000000000E+02
      2.99999999999994E+02   3.00000000000000E+02   3.00000000000000E+02   2.99999999999994E+02   3.00000000000000E+02
      2.96666666666667E-04
      2.96666666666667E-04   2.96666666666667E-04   0.00000000000000E+00   0.00000000000000E+00   0.00000000000000E+00
      0.00000000000000E+00   0.00000000000000E+00   1.37317581346783E-16   0.00000000000000E+00   0.00000000000000E+00
      0.00000000000000E+00   0.00000000000000E+00  -3.26361771364858E-19  -2.45058873891757E-28  -3.26361771609917E-19
     -4.27759975178852E-15   3.00000000000000E+02   0.00000000000000E+00  -2.97207301869971E-35   0.00000000000000E+00
      0.00000000000000E+00   0.00000000000000E+00   0.00000000000000E+00   0.00000000000000E+00   1.60002125532428E-19
     -3.37874849585986E-28   1.60002125194553E-19   2.07014108522086E-15   0.00000000000000E+00   0.00000000000000E+00
      0.00000000000000E+00   0.00000000000000E+00   1.66359645836215E-19   5.79148887690463E-28   1.66359646415364E-19
      2.07014108522086E-15   3.00000000000000E+02   2.99999999999994E+02   3.00000000000000E+02   2.99999999999999E+02
      2.99999999999994E+02   3.00000000000000E+02   3.00000000000000E+02   2.99999999999994E+02   3.00000000000000E+02
      6.02444444444445E-04
      6.02444444444445E-04   6.02444444444445E-04   0.00000000000000E+00   0.00000000000000E+00   0.00000000000000E+00
      0.00000000000000E+00   0.00000000000000E+00   1.37553107922724E-16   0.00000000000000E+00   0.00000000000000E+00
      0.00000000000000E+00   0.00000000000000E+00  -5.34952871436083E-18   1.27207907744101E-26  -5.34952870164004E-18
     -4.27761972319229E-15   3.00000000000000E+02   0.00000000000000E+00   7.43018254674927E-36   0.00000000000000E+00
      0.00000000000000E+00   0.00000000000000E+00   0.00000000000000E+00   0.00000000000000E+00   2.67511382230275E-18
     -8.06485505984543E-27   2.67511381423789E-18   2.07003330763481E-15   0.00000000000000E+00   0.00000000000000E+00
      0.00000000000000E+00   0.00000000000000E+00   2.67441489207040E-18  -4.66826662636068E-27   2.67441488740213E-18
      2.07003330763479E-15   3.00000000000000E+02   2.99999999999994E+02   3.00000000000000E+02   3.00000000000000E+02
      2.99999999999994E+02   3.00000000000000E+02   3.00000000000000E+02   2.99999999999994E+02   3.00000000000000E+02
      1.21400000000000E-03
      1.21400000000000E-03   1.21400000000000E-03   0.00000000000000E+00   0.00000000000000E+00   0.00000000000000E+00
      0.00000000000000E+00   0.00000000000000E+00   1.38024311407712E-16   0.00000000000000E+00   0.00000000000000E+00
      0.00000000000000E+00   0.00000000000000E+00  -8.68710444769846E-17   1.64588837504059E-25  -8.68710443123958E-17
     -4.27765964960998E-15   3.00000000000000E+02   0.00000000000000E+00  -3.38486093796356E-35   0.00000000000000E+00
      0.00000000000000E+00   0.00000000000000E+00   0.00000000000000E+00   0.00000000000000E+00   4.34398465053963E-17
     -8.29034486670824E-26   4.34398464224928E-17   2.06981766910111E-15   0.00000000000000E+00   0.00000000000000E+00
      0.00000000000000E+00   0.00000000000000E+00   4.34311979716936E-17  -8.17908217052262E-26   4.34311978899028E-17
      2.06981766910112E-15   3.00000000000000E+02   2.99999999999994E+02   3.00000000000000E+02   3.00000000000000E+02
      2.99999999999994E+02   3.00000000000000E+02   3.00000000000000E+02   2.99999999999994E+02   3.00000000000000E+02
      2.43711111111111E-03
      2.43711111111111E-03   2.43711111111111E-03   0.00000000000000E+00   0.00000000000000E+00   0.00000000000000E+00
      0.00000000000000E+00   0.00000000000000E+00   1.38967320713386E-16   0.00000000000000E+00   0.00000000000000E+00
      0.00000000000000E+00   0.00000000000000E+00  -1.43274105091383E-15   2.67567489311230E-24  -1.43274104823816E-15
     -4.27773943716440E-15   3.00000000000000E+02   0.00000000000000E+00  -7.43018254674927E-36   0.00000000000000E+00
      0.00000000000000E+00   0.00000000000000E+00   0.00000000000000E+00   0.00000000000000E+00   7.16370465425718E-16
     -1.33810079246131E-24   7.16370464087617E-16   2.06938605822551E-15   0.00000000000000E+00   0.00000000000000E+00
      0.00000000000000E+00   0.00000000000000E+00   7.16370585489755E-16  -1.33921837788547E-24   7.16370584150537E-16
      2.06938605822550E-15   3.00000000000000E+02   2.99999999999994E+02   3.00000000000000E+02   2.99999999999999E+02
      2.99999999999994E+02   3.00000000000003E+02   3.00000000000000E+02   2.99999999999994E+02   3.00000000000000E+02
      4.88333333333333E-03
      4.88333333333333E-03   4.88333333333333E-03   0.00000000000000E+00   0.00000000000000E+00   0.00000000000000E+00
      0.00000000000000E+00   0.00000000000000E+00   1.40855756753473E-16   0.00000000000000E+00   0.00000000000000E+00
      0.00000000000000E+00   0.00000000000000E+00   4.84780264611375E-21   4.76849011079790E-27   4.84780741460386E-21
     -4.27789875343350E-15   3.00000000000000E+02   0.00000000000000E+00  -4.70578227960787E-35   0.00000000000000E+00
      0.00000000000000E+00   2.75534211622580E-17   0.00000000000000E+00   0.00000000000000E+00  -6.29307918003896E-21
     -2.43089903412429E-29  -6.29307920434796E-21   2.06852149834002E-15   0.00000000000000E+00   2.75534211622580E-17
      0.00000000000000E+00   0.00000000000000E+00   1.44527653647306E-21  -4.74672898635980E-27   1.44527178974407E-21
      2.06852149834002E-15   3.00000000000000E+02   2.99999999999994E+02   3.00000000000000E+02   3.00000000000000E+02
      2.99999999999994E+02   3.00000000000000E+02   3.00000000000000E+02   2.99999999999994E+02   3.00000000000000E+02
      9.55833580246914E-03
      9.55833580246914E-03   9.55833580246914E-03   0.00000000000000E+00   0.00000000000000E+00   0.00000000000000E+00
      0.00000000000000E+00   0.00000000000000E+00   1.44473792650324E-16   0.00000000000000E+00   0.00000000000000E+00
      0.00000000000000E+00   0.00000000000000E+00   1.86168565423647E-21   2.43948367249540E-27   1.86168809372014E-21
     -4.27820228192465E-15   3.00000000000000E+02   0.00000000000000E+00   1.21359648263571E-34   0.00000000000000E+00
      0.00000000000000E+00   7.07204476497956E-16   0.00000000000000E+00   0.00000000000000E+00   1.48706493327901E-21
      6.18509252570766E-28   1.48706555178826E-21   2.06686424463714E-15   0.00000000000000E+00   7.07204476497956E-16
      0.00000000000000E+00   0.00000000000000E+00  -3.34875057634670E-21  -3.06916173190648E-27  -3.34875364550843E-21
      2.06686424463713E-15   3.00000000000000E+02   2.99999999999994E+02   3.00000000000000E+02   2.99999999999997E+02
      2.99999999999994E+02   3.00000000000005E+02   3.00000000000000E+02   2.99999999999994E+02   3.00000000000000E+02
      1.84927849657064E-02
      1.84927849657064E-02   1.84927849657064E-02   0.00000000000000E+00   0.00000000000000E+00   0.00000000000000E+00
      0.00000000000000E+00   0.00000000000000E+00   1.51421640272129E-16   0.00000000000000E+00   0.00000000000000E+00
      0.00000000000000E+00   0.00000000000000E+00   8.34452017890979E-19   1.46839832353060E-26   8.34452032574962E-19
     -4.27877905139366E-15   3.00000000000000E+02   2.15167897267350E-16   1.25074739536946E-33   0.00000000000000E+00
      0.00000000000000E+00   0.00000000000000E+00   0.00000000000000E+00   0.00000000000000E+00  -4.18076418222722E-19
     -6.52720746437346E-27  -4.18076424749929E-19   2.06367870556076E-15   0.00000000000000E+00   0.00000000000000E+00
      0.00000000000000E+00   0.00000000000000E+00  -4.16375599263562E-19  -8.56147202020968E-27  -4.16375607825034E-19
      2.06367870556076E-15   2.99999999999996E+02   2.99999999999993E+02   3.00000000000000E+02   2.99999999999503E+02
      2.99999999999993E+02   3.00000000000906E+02   2.99999999999996E+02   2.99999999999993E+02   3.00000000000000E+02
      3.55675100332266E-02
      3.55675100332266E-02   3.55675100332266E-02   0.00000000000000E+00   0.00000000000000E+00   0.00000000000000E+00
      0.00000000000000E+00   0.00000000000000E+00   1.64824650046308E-16   0.00000000000000E+00   0.00000000000000E+00
      0.00000000000000E+00   0.00000000000000E+00   2.50836807698236E-16  -4.21588339079005E-26   2.50836807656077E-16
     -4.27987039002184E-15   3.00000000000000E+02   4.43514828242344E-14   2.19998623875020E-31   0.00000000000000E+00
      0.00000000000000E+00  -7.80680266263977E-16   0.00000000000000E+00   0.00000000000000E+00  -1.25416726141962E-16
     -2.03180117902355E-26  -1.25416726162280E-16   2.05752286998776E-15   0.00000000000000E+00  -7.80680266263977E-16
      0.00000000000000E+00   0.00000000000000E+00  -1.25420081474358E-16  -1.94410638383757E-26  -1.25420081493799E-16
      2.05752286998776E-15   2.99999999999147E+02   2.99999999999835E+02   3.00000000000000E+02   2.99999999897841E+02
      2.99999999999818E+02   3.00000000189224E+02   2.99999999999147E+02   2.99999999999851E+02   3.00000000000000E+02
      6.81992068289319E-02
      6.81992068289319E-02   6.81992068289319E-02   0.00000000000000E+00   0.00000000000000E+00   0.00000000000000E+00
      0.00000000000000E+00   0.00000000000000E+00   1.90917617969883E-16   0.00000000000000E+00   0.00000000000000E+00
      0.00000000000000E+00   0.00000000000000E+00   1.83149826423351E-18   2.19591474134537E-25   1.83149848382498E-18
     -4.28192765437556E-15   3.00000000000000E+02   0.00000000000000E+00   1.84103411991676E-34   0.00000000000000E+00
      0.00000000000000E+00   6.24544213011182E-16   0.00000000000000E+00   0.00000000000000E+00  -9.14725227507360E-19
     -1.08891994215620E-25  -9.14725336399354E-19   2.04550501820284E-15   0.00000000000000E+00   6.24544213011182E-16
      0.00000000000000E+00   0.00000000000000E+00  -9.16773036715245E-19  -1.10710386565474E-25  -9.16773147425632E-19
      2.04550501820285E-15   3.00000000000000E+02   2.99999999999994E+02   3.00000000000000E+02   2.99999999999976E+02
      2.99999999999994E+02   3.00000000000002E+02   3.00000000000000E+02   2.99999999999994E+02   3.00000000000000E+02
      1.27661409878884E-01
      1.27661409878884E-01   1.27661409878884E-01   0.00000000000000E+00   0.00000000000000E+00   0.00000000000000E+00
      0.00000000000000E+00   0.00000000000000E+00   2.40241131687032E-16   0.00000000000000E+00   0.00000000000000E+00
      0.00000000000000E+00   0.00000000000000E+00  -8.10904051387893E-20  -2.09076394642793E-27  -8.10904072295533E-20
     -4.28571978379824E-15   3.00000000000000E+02   0.00000000000000E+00   1.98963777085175E-34   0.00000000000000E+00
      0.00000000000000E+00   3.12272106505591E-16   0.00000000000000E+00   0.00000000000000E+00   5.48648447477660E-20
      2.50580686610565E-27   5.48648472535729E-20   2.02273932605561E-15   0.00000000000000E+00   3.12272106505591E-16
      0.00000000000000E+00   0.00000000000000E+00   2.62255603951496E-20  -4.19169202417249E-28   2.62255599759804E-20
      2.02273932605561E-15   3.00000000000000E+02   2.99999999999994E+02   3.00000000000000E+02   3.00000000000000E+02
      2.99999999999994E+02   3.00000000000000E+02   3.00000000000000E+02   2.99999999999994E+02   3.00000000000000E+02
      2.00000000000000E-01
      2.00000000000000E-01   2.00000000000000E-01   0.00000000000000E+00   0.00000000000000E+00   0.00000000000000E+00
      0.00000000000000E+00   0.00000000000000E+00   3.03909625196602E-16   0.00000000000000E+00   0.00000000000000E+00
      0.00000000000000E+00   0.00000000000000E+00  -1.91932526249738E-18   1.43225478405169E-25  -1.91932511927191E-18
     -4.29127253286215E-15   3.00000000000000E+02   0.00000000000000E+00   1.09801586524184E-34   0.00000000000000E+00
      0.00000000000000E+00   6.88835529056451E-16   0.00000000000000E+00   0.00000000000000E+00   1.00363305447932E-18
     -7.09575904246689E-26   1.00363298352173E-18   1.99368145383277E-15   0.00000000000000E+00   6.88835529056451E-16
      0.00000000000000E+00   0.00000000000000E+00   9.15692208014506E-19  -7.22643380550022E-26   9.15692135750167E-19
      1.99368145383277E-15   3.00000000000000E+02   2.99999999999994E+02   3.00000000000000E+02   2.99999999999817E+02
      2.99999999999994E+02   3.00000000002106E+02   3.00000000000000E+02   2.99999999999994E+02   3.00000000000000E+02
      3.03067818619916E-01
      3.03067818619916E-01   3.03067818619916E-01   0.00000000000000E+00   0.00000000000000E+00   0.00000000000000E+00
      0.00000000000000E+00   0.00000000000000E+00   4.03875231907918E-16   0.00000000000000E+00   0.00000000000000E+00
      0.00000000000000E+00   0.00000000000000E+00   7.39372235668476E-18  -3.28827344323009E-25   7.39372202785741E-18
     -4.30613678923092E-15   3.00000000000000E+02   0.00000000000000E+00   3.48310446274835E-33   0.00000000000000E+00
      0.00000000000000E+00   7.07204476497956E-16   0.00000000000000E+00   0.00000000000000E+00  -3.83777734397864E-18
      1.64553423758986E-25  -3.83777717942522E-18   1.95113077866150E-15   0.00000000000000E+00   7.07204476497956E-16
      0.00000000000000E+00   0.00000000000000E+00  -3.55594501180449E-18   1.63372261717791E-25  -3.55594484843222E-18
      1.95113077866152E-15   3.00000000000000E+02   2.99999999999994E+02   3.00000000000000E+02   2.99999999966042E+02
      2.99999999999990E+02   3.00000000007990E+02   3.00000000000000E+02   2.99999999999994E+02   3.00000000000000E+02
      4.00000000000000E-01
      4.00000000000000E-01   4.00000000000000E-01   0.00000000000000E+00   0.00000000000000E+00   0.00000000000000E+00
      0.00000000000000E+00   0.00000000000000E+00   5.09482355481064E-16   0.00000000000000E+00   0.00000000000000E+00
      0.00000000000000E+00   0.00000000000000E+00   3.06439073877298E-17   8.83995717539162E-26   3.06439074761294E-17
     -4.33322084118771E-15   3.00000000000000E+02   0.00000000000000E+00   1.49016438854249E-33   0.00000000000000E+00
      0.00000000000000E+00   7.62311318822472E-16   0.00000000000000E+00   0.00000000000000E+00  -1.53437775058773E-17
     -4.32353447829290E-26  -1.53437775491127E-17   1.91186924285334E-15   0.00000000000000E+00   7.62311318822472E-16
      0.00000000000000E+00   0.00000000000000E+00  -1.53001298818390E-17  -4.51777849459901E-26  -1.53001299270168E-17
      1.91186924285332E-15   3.00000000000000E+02   2.99999999999994E+02   3.00000000000000E+02   2.99999999998466E+02
      2.99999999999994E+02   3.00000000002758E+02   3.00000000000000E+02   2.99999999999994E+02   3.00000000000000E+02
      4.84744650865265E-01
      4.84744650865265E-01   4.84744650865265E-01   0.00000000000000E+00   0.00000000000000E+00   0.00000000000000E+00
      0.00000000000000E+00   0.00000000000000E+00   6.08196858732361E-16   0.00000000000000E+00   0.00000000000000E+00
      0.00000000000000E+00   0.00000000000000E+00   3.69679635277783E-17   1.05715729834152E-25   3.69679636334940E-17
     -4.36499121085334E-15   3.00000000000000E+02   0.00000000000000E+00   1.72875580587700E-33   0.00000000000000E+00
      0.00000000000000E+00   5.78621844407419E-16   0.00000000000000E+00   0.00000000000000E+00  -1.87529295942286E-17
     -5.43014532112563E-26  -1.87529296485300E-17   1.87839717606050E-15   0.00000000000000E+00   5.60252896965913E-16
      0.00000000000000E+00   0.00000000000000E+00  -1.82150339324472E-17  -5.25169080192475E-26  -1.82150339849641E-17
      1.87839717606051E-15   3.00000000000000E+02   2.99999999999994E+02   3.00000000000000E+02   2.99999999988920E+02
      2.99999999999993E+02   3.00000000007967E+02   3.00000000000000E+02   2.99999999999994E+02   3.00000000000000E+02
      6.00000000000000E-01
      6.00000000000000E-01   6.00000000000000E-01   0.00000000000000E+00   0.00000000000000E+00   0.00000000000000E+00
      0.00000000000000E+00   0.00000000000000E+00   7.46261322892382E-16   0.00000000000000E+00   0.00000000000000E+00
      0.00000000000000E+00   0.00000000000000E+00  -1.28832021004066E-17   8.74421493068562E-26  -1.28832020129644E-17
     -4.41374970739312E-15   3.00000000000000E+02   0.00000000000000E+00   5.98542482932580E-34   0.00000000000000E+00
      0.00000000000000E+00   7.80680266263977E-16   0.00000000000000E+00   0.00000000000000E+00   5.89356032955581E-18
     -4.26135791859978E-26   5.89356028694223E-18   1.83374419225035E-15   0.00000000000000E+00   7.80680266263977E-16
      0.00000000000000E+00   0.00000000000000E+00   6.98964177085446E-18  -4.48322562802498E-26   6.98964172602221E-18
      1.83374419225036E-15   3.00000000000000E+02   2.99999999999994E+02   3.00000000000000E+02   2.99999999999908E+02
      2.99999999999994E+02   3.00000000000039E+02   3.00000000000000E+02   2.99999999999994E+02   3.00000000000000E+02
      7.39357870311768E-01
      7.39357870311768E-01   7.39357870311768E-01   0.00000000000000E+00   0.00000000000000E+00   0.00000000000000E+00
      0.00000000000000E+00   0.00000000000000E+00   9.14192813789830E-16   0.00000000000000E+00   0.00000000000000E+00
      0.00000000000000E+00   0.00000000000000E+00   2.31084546492020E-14  -1.88642846617117E-25   2.31084546490134E-14
     -4.47586778486542E-15   3.00000000000000E+02   4.67990176556489E-15   6.62318216458844E-32   0.00000000000000E+00
      0.00000000000000E+00   4.13301317433870E-16   0.00000000000000E+00   0.00000000000000E+00  -1.15549561111246E-14
      9.67559500422256E-26  -1.15549561110279E-14   1.78083748553781E-15   0.00000000000000E+00   3.67378948830107E-16
      0.00000000000000E+00   0.00000000000000E+00  -1.15534985380752E-14   8.96951715802611E-26  -1.15534985379855E-14
      1.78083748553777E-15   2.99999999999945E+02   2.99999999999978E+02   3.00000000000000E+02   2.99999999831015E+02
      3.00000000000008E+02   3.00000001453181E+02   2.99999999999945E+02   2.99999999999979E+02   3.00000000000000E+02
      8.00000000000000E-01
      8.00000000000000E-01   8.00000000000000E-01   0.00000000000000E+00   0.00000000000000E+00   0.00000000000000E+00
      0.00000000000000E+00   0.00000000000000E+00   9.86895365481617E-16   0.00000000000000E+00   0.00000000000000E+00
      0.00000000000000E+00   0.00000000000000E+00   7.83009202918947E-14   4.69250366564210E-22   7.83009207611450E-14
     -4.50321467158588E-15   3.00000000000000E+02   7.17226324224501E-16   2.61894946528626E-31   0.00000000000000E+00
      0.00000000000000E+00   1.67157421717699E-15   0.00000000000000E+00   0.00000000000000E+00  -3.91507441543885E-14
     -2.34640563424442E-22  -3.91507443890291E-14   1.75815965305214E-15   0.00000000000000E+00   1.67157421717699E-15
      0.00000000000000E+00   0.00000000000000E+00  -3.91501761374753E-14  -2.34640917088772E-22  -3.91501763721162E-14
      1.75815965305213E-15   2.99999999999958E+02   2.99999999999987E+02   3.00000000000000E+02   2.99999999967672E+02
      2.99999999999984E+02   3.00000000018454E+02   2.99999999999958E+02   2.99999999999988E+02   3.00000000000000E+02
      1.00000000000000E+00
      1.00000000000000E+00   1.00000000000000E+00   0.00000000000000E+00   0.00000000000000E+00   0.00000000000000E+00
      0.00000000000000E+00   0.00000000000000E+00   1.22339480055447E-15   0.00000000000000E+00   0.00000000000000E+00
      0.00000000000000E+00   0.00000000000000E+00   5.04668202518949E-16   4.34113032234209E-25   5.04668202953062E-16
     -4.59299592345928E-15   3.00000000000000E+02   1.43445264844900E-16   2.88786428316988E-33   0.00000000000000E+00
      0.00000000000000E+00   8.54156056029999E-16   0.00000000000000E+00   0.00000000000000E+00  -2.51365376593818E-16
     -2.16374745636610E-25  -2.51365376810192E-16   1.68480056145241E-15   0.00000000000000E+00   8.35787108588493E-16
      0.00000000000000E+00   0.00000000000000E+00  -2.53302825925496E-16  -2.17376392829682E-25  -2.53302826142872E-16
      1.68480056145238E-15   2.99999999999975E+02   2.99999999999993E+02   3.00000000000000E+02   2.99999999995459E+02
      2.99999999999994E+02   3.00000000022684E+02   2.99999999999975E+02   2.99999999999993E+02   3.00000000000000E+02
}
