DF-ISE text

Info {
  version   = 1.0
  type      = xyplot
  datasets  = [
    "time"
    "gate OuterVoltage" "gate InnerVoltage" "gate QuasiFermiPotential" "gate DisplacementCurrent" "gate eCurrent"
    "gate hCurrent" "gate TotalCurrent" "gate Charge" "substrate OuterVoltage" "substrate InnerVoltage"
    "substrate QuasiFermiPotential" "substrate DisplacementCurrent" "substrate eCurrent" "substrate hCurrent" "substrate TotalCurrent"
    "substrate Charge" "drain OuterVoltage" "drain InnerVoltage" "drain QuasiFermiPotential" "drain DisplacementCurrent"
    "drain eCurrent" "drain hCurrent" "drain TotalCurrent" "drain Charge" "source OuterVoltage"
    "source InnerVoltage" "source QuasiFermiPotential" "source DisplacementCurrent" "source eCurrent" "source hCurrent"
    "source TotalCurrent" "source Charge" "lTmin" "lTave" "lTmax"
    "eTmin" "eTave" "eTmax" "hTmin" "hTave"
    "hTmax" ]
  functions = [
    Time
    OuterVoltage InnerVoltage QuasiFermiPotential DisplacementCurrent eCurrent
    hCurrent TotalCurrent Charge OuterVoltage InnerVoltage
    QuasiFermiPotential DisplacementCurrent eCurrent hCurrent TotalCurrent
    Charge OuterVoltage InnerVoltage QuasiFermiPotential DisplacementCurrent
    eCurrent hCurrent TotalCurrent Charge OuterVoltage
    InnerVoltage QuasiFermiPotential DisplacementCurrent eCurrent hCurrent
    TotalCurrent Charge MinTemperature AveTemperature MaxTemperature
    MinTemperature AveTemperature MaxTemperature MinTemperature AveTemperature
    MaxTemperature ]
}

Data {
      0.00000000000000E+00
      0.00000000000000E+00   0.00000000000000E+00   0.00000000000000E+00   0.00000000000000E+00   0.00000000000000E+00
      0.00000000000000E+00   0.00000000000000E+00   1.67117769161556E-16   0.00000000000000E+00   0.00000000000000E+00
      0.00000000000000E+00   0.00000000000000E+00  -6.60101426468514E-24  -7.59890604680367E-25  -7.36090486936550E-24
     -5.56272923078442E-15   0.00000000000000E+00   0.00000000000000E+00   0.00000000000000E+00   0.00000000000000E+00
      2.79514068931879E-24   3.92835635517449E-25   3.18797632483624E-24   2.69780573081143E-15   0.00000000000000E+00
      0.00000000000000E+00   0.00000000000000E+00   0.00000000000000E+00   3.80587057526603E-24   3.67057969263231E-25
      4.17292854452926E-24   2.69780573081143E-15   3.00000000000000E+02   2.99999999999999E+02   3.00000000000000E+02
      3.00000000000000E+02   2.99999999999999E+02   3.00000000000000E+02   3.00000000000000E+02   2.99999999999999E+02
      3.00000000000000E+02
      0.00000000000000E+00
      0.00000000000000E+00   0.00000000000000E+00   0.00000000000000E+00   0.00000000000000E+00   0.00000000000000E+00
      0.00000000000000E+00   0.00000000000000E+00   1.67117769161554E-16   0.00000000000000E+00   0.00000000000000E+00
      0.00000000000000E+00   0.00000000000000E+00   2.88498495676288E-24  -1.08714276669456E-26   2.87411352909593E-24
     -5.56272923078442E-15   0.00000000000000E+00   0.00000000000000E+00   0.00000000000000E+00   0.00000000000000E+00
     -2.74203909413284E-24  -9.52768091015790E-28  -2.74299186222386E-24   2.69780573081143E-15   0.00000000000000E+00
      0.00000000000000E+00   0.00000000000000E+00   0.00000000000000E+00  -1.42967779498640E-25   1.18461126265672E-26
     -1.31121666872073E-25   2.69780573081143E-15   3.00000000000000E+02   2.99999999999999E+02   3.00000000000000E+02
      3.00000000000000E+02   2.99999999999999E+02   3.00000000000000E+02   3.00000000000000E+02   2.99999999999999E+02
      3.00000000000000E+02
      0.00000000000000E+00
      0.00000000000000E+00   0.00000000000000E+00   0.00000000000000E+00   0.00000000000000E+00   0.00000000000000E+00
      0.00000000000000E+00   0.00000000000000E+00   1.67117769161554E-16   0.00000000000000E+00   0.00000000000000E+00
      0.00000000000000E+00   0.00000000000000E+00   3.89361541988781E-24  -1.58677722709434E-27   3.89202864266071E-24
     -5.56272923078442E-15   0.00000000000000E+00   0.00000000000000E+00   0.00000000000000E+00   0.00000000000000E+00
     -1.71029769274557E-24  -6.86558438431969E-27  -1.71716327712988E-24   2.69780573081143E-15   0.00000000000000E+00
      0.00000000000000E+00   0.00000000000000E+00   0.00000000000000E+00  -2.18334007424953E-24   8.47470871870728E-27
     -2.17486536553082E-24   2.69780573081143E-15   3.00000000000000E+02   2.99999999999999E+02   3.00000000000000E+02
      3.00000000000000E+02   2.99999999999999E+02   3.00000000000000E+02   3.00000000000000E+02   2.99999999999999E+02
      3.00000000000000E+02
      1.00000000000000E-02
      0.00000000000000E+00   0.00000000000000E+00   0.00000000000000E+00   0.00000000000000E+00   0.00000000000000E+00
      0.00000000000000E+00   0.00000000000000E+00   1.67013257805003E-16   0.00000000000000E+00   0.00000000000000E+00
      0.00000000000000E+00   0.00000000000000E+00   1.02315186417804E-19  -1.43000216196737E-17  -1.41977064332559E-17
     -5.56378124832974E-15   5.00000000000000E-04   4.99999999999436E-04   0.00000000000000E+00   0.00000000000000E+00
      1.56685808632479E-17   1.82617034078909E-21   1.56704070335887E-17   2.69896249825948E-15   0.00000000000000E+00
      9.18447372075268E-17   0.00000000000000E+00   0.00000000000000E+00  -1.47270059973406E-18  -5.98737506257367E-28
     -1.47270060033280E-18   2.69780549226526E-15   3.00000000000000E+02   2.99999999999999E+02   3.00000000000000E+02
      2.99517801907255E+02   3.00000125674168E+02   3.00490249199835E+02   3.00000000000000E+02   2.99999999999999E+02
      3.00000000000000E+02
      2.31888888888889E-02
      0.00000000000000E+00   0.00000000000000E+00   0.00000000000000E+00   0.00000000000000E+00   0.00000000000000E+00
      0.00000000000000E+00   0.00000000000000E+00   1.66875437923142E-16   0.00000000000000E+00   0.00000000000000E+00
      0.00000000000000E+00   0.00000000000000E+00  -9.38433603706932E-21  -3.29923700274347E-17  -3.30017543634718E-17
     -5.56516844284485E-15   1.15944444444444E-03   1.15944444444301E-03   0.00000000000000E+00   0.00000000000000E+00
      3.63721701843562E-17   3.54117872617505E-21   3.63757113630824E-17   2.70048782728215E-15   0.00000000000000E+00
      9.18447372075268E-17   0.00000000000000E+00   0.00000000000000E+00  -3.37395699920339E-18  -4.07131355663964E-28
     -3.37395699961053E-18   2.69780517763956E-15   3.00000000000000E+02   2.99999999999999E+02   3.00000000000000E+02
      2.98892798233131E+02   3.00000307558362E+02   3.01148164330790E+02   3.00000000000000E+02   2.99999999999999E+02
      3.00000000000000E+02
      4.09938888888889E-02
      0.00000000000000E+00   0.00000000000000E+00   0.00000000000000E+00   0.00000000000000E+00   0.00000000000000E+00
      0.00000000000000E+00   0.00000000000000E+00   1.66689415301601E-16   0.00000000000000E+00   0.00000000000000E+00
      0.00000000000000E+00   0.00000000000000E+00  -2.72945240134419E-20  -5.79301447466654E-17  -5.79574392706788E-17
     -5.56704061553254E-15   2.04969444444445E-03   2.04969444444188E-03   0.00000000000000E+00   0.00000000000000E+00
      6.38208793764501E-17   6.17020302442067E-21   6.38270495794746E-17   2.70254644735395E-15   0.00000000000000E+00
      2.75534211622580E-16   0.00000000000000E+00   0.00000000000000E+00  -5.86961031076285E-18   1.96715593530017E-27
     -5.86961030879569E-18   2.69780475287699E-15   3.00000000000000E+02   2.99999999999999E+02   3.00000000000000E+02
      2.98068192318872E+02   3.00000581324288E+02   3.02056320283203E+02   3.00000000000000E+02   2.99999999999999E+02
      3.00000000000000E+02
      6.50306388888889E-02
      0.00000000000000E+00   0.00000000000000E+00   0.00000000000000E+00   0.00000000000000E+00   0.00000000000000E+00
      0.00000000000000E+00   0.00000000000000E+00   1.66438347035480E-16   0.00000000000000E+00   0.00000000000000E+00
      0.00000000000000E+00   0.00000000000000E+00  -8.25150838176141E-20  -9.10647472937245E-17  -9.11472623775421E-17
     -5.56956706695435E-15   3.25153194444445E-03   3.25153194444045E-03   0.00000000000000E+00   0.00000000000000E+00
      1.00250872892432E-16   9.62799868698922E-21   1.00260500891119E-16   2.70532454050430E-15   0.00000000000000E+00
      3.67378948830107E-16   0.00000000000000E+00   0.00000000000000E+00  -9.11323851852843E-18   4.95182625195300E-27
     -9.11323851357661E-18   2.69780417941458E-15   3.00000000000000E+02   2.99999999999999E+02   3.00000000000000E+02
      2.96989341807118E+02   3.00001000449273E+02   3.03318475609692E+02   3.00000000000000E+02   2.99999999999999E+02
      3.00000000000000E+02
      9.74802513888889E-02
      0.00000000000000E+00   0.00000000000000E+00   0.00000000000000E+00   0.00000000000000E+00   0.00000000000000E+00
      0.00000000000000E+00   0.00000000000000E+00   1.66099518145200E-16   0.00000000000000E+00   0.00000000000000E+00
      0.00000000000000E+00   0.00000000000000E+00  -2.52555273376513E-19  -1.34853058971434E-16  -1.35105614244811E-16
     -5.57297599278791E-15   4.87401256944445E-03   4.87401256943853E-03   0.00000000000000E+00   0.00000000000000E+00
      1.48364050681031E-16   1.42078826387348E-20   1.48378258563670E-16   2.70907306946341E-15   0.00000000000000E+00
      5.51068423245161E-16   0.00000000000000E+00   0.00000000000000E+00  -1.32726443087875E-17  -1.00719781234936E-26
     -1.32726443188594E-17   2.69780340517930E-15   3.00000000000000E+02   2.99999999999999E+02   3.00000000000000E+02
      2.95594105651048E+02   3.00001652563781E+02   3.05088816188186E+02   3.00000000000000E+02   2.99999999999999E+02
      3.00000000000000E+02
      1.41287228263889E-01
      0.00000000000000E+00   0.00000000000000E+00   0.00000000000000E+00   0.00000000000000E+00   0.00000000000000E+00
      0.00000000000000E+00   0.00000000000000E+00   1.65642305030829E-16   0.00000000000000E+00   0.00000000000000E+00
      0.00000000000000E+00   0.00000000000000E+00  -9.04537962590609E-21  -1.92306708005594E-16  -1.92315753385220E-16
     -5.57757480570550E-15   7.06436141319445E-03   7.06436141318604E-03   0.00000000000000E+00   0.00000000000000E+00
      2.10819187465688E-16   1.91910338129339E-20   2.10838378499501E-16   2.71413014082661E-15   0.00000000000000E+00
      7.34757897660214E-16   0.00000000000000E+00   0.00000000000000E+00  -1.85226251120155E-17  -2.26557655840073E-27
     -1.85226251142811E-17   2.69780235984807E-15   3.00000000000000E+02   2.99999999999999E+02   3.00000000000000E+02
      2.93816872660226E+02   3.00002681007167E+02   3.07603934958433E+02   3.00000000000000E+02   2.99999999999999E+02
      3.00000000000000E+02
      1.99063763320139E-01
      0.00000000000000E+00   0.00000000000000E+00   0.00000000000000E+00   0.00000000000000E+00   0.00000000000000E+00
      0.00000000000000E+00   0.00000000000000E+00   1.65039652185779E-16   0.00000000000000E+00   0.00000000000000E+00
      0.00000000000000E+00   0.00000000000000E+00  -1.21012683439815E-20  -2.65301565046759E-16  -2.65313666315103E-16
     -5.58363447363970E-15   9.95318816600695E-03   9.95318816599535E-03   0.00000000000000E+00   0.00000000000000E+00
      2.90142144829995E-16   2.56120698617971E-20   2.90167756899857E-16   2.72079384048679E-15   0.00000000000000E+00
      1.01029210928279E-15   0.00000000000000E+00   0.00000000000000E+00  -2.48540905804148E-17  -4.33921617112429E-27
     -2.48540905847540E-17   2.69780098096714E-15   3.00000000000000E+02   2.99999999999999E+02   3.00000000000000E+02
      2.91652460535689E+02   3.00004276819345E+02   3.11145101630798E+02   3.00000000000000E+02   2.99999999999999E+02
      3.00000000000000E+02
      2.75264593444327E-01
      0.00000000000000E+00   0.00000000000000E+00   0.00000000000000E+00   0.00000000000000E+00   0.00000000000000E+00
      0.00000000000000E+00   0.00000000000000E+00   1.64245444125414E-16   0.00000000000000E+00   0.00000000000000E+00
      0.00000000000000E+00   0.00000000000000E+00  -1.56341594185577E-20  -3.57034675391899E-16  -3.57050309551318E-16
     -5.59161673760850E-15   1.37632296722163E-02   1.37632296722008E-02   0.00000000000000E+00   0.00000000000000E+00
      3.89301594508730E-16   3.30221463857012E-20   3.89334616655115E-16   2.72957213147635E-15   0.00000000000000E+00
      1.28582632090537E-15   0.00000000000000E+00   0.00000000000000E+00  -3.22843071051369E-17   1.33972549006838E-27
     -3.22843071037972E-17   2.69779916200674E-15   3.00000000000000E+02   2.99999999999999E+02   3.00000000000000E+02
      2.89092432680860E+02   3.00006754632498E+02   3.16220364168612E+02   3.00000000000000E+02   2.99999999999999E+02
      3.00000000000000E+02
      3.75765021619227E-01
      0.00000000000000E+00   0.00000000000000E+00   0.00000000000000E+00   0.00000000000000E+00   0.00000000000000E+00
      0.00000000000000E+00   0.00000000000000E+00   1.63199050913259E-16   0.00000000000000E+00   0.00000000000000E+00
      0.00000000000000E+00   0.00000000000000E+00  -1.95637492178760E-20  -4.70766183540256E-16  -4.70785747289474E-16
     -5.60212763544214E-15   1.87882510809614E-02   1.87882510809409E-02   0.00000000000000E+00   0.00000000000000E+00
      5.11449249688554E-16   4.12133726904563E-20   5.11490463061245E-16   2.74113182220072E-15   0.00000000000000E+00
      1.65320526973548E-15   0.00000000000000E+00   0.00000000000000E+00  -4.07047157710611E-17  -7.12381079130637E-28
     -4.07047157717735E-17   2.69779676232816E-15   3.00000000000000E+02   2.99999999999999E+02   3.00000000000000E+02
      2.86187006346905E+02   3.00010583149931E+02   3.23649072120644E+02   3.00000000000000E+02   2.99999999999999E+02
      3.00000000000000E+02
      5.08313919667680E-01
      0.00000000000000E+00   0.00000000000000E+00   0.00000000000000E+00   0.00000000000000E+00   0.00000000000000E+00
      0.00000000000000E+00   0.00000000000000E+00   1.61820836539399E-16   0.00000000000000E+00   0.00000000000000E+00
      0.00000000000000E+00   0.00000000000000E+00  -2.37035205494243E-20  -6.09499782589483E-16  -6.09523486110032E-16
     -5.61596145062418E-15   2.54156959833840E-02   2.54156959833576E-02   0.00000000000000E+00   0.00000000000000E+00
      6.59310168742380E-16   4.97661668292190E-20   6.59359934909209E-16   2.75634701789995E-15   0.00000000000000E+00
      2.02058421856559E-15   0.00000000000000E+00   0.00000000000000E+00  -4.98364487919366E-17  -7.23980660881644E-27
     -4.98364487991764E-17   2.69779359618483E-15   3.00000000000000E+02   2.99999999999999E+02   3.00000000000000E+02
      2.83078654444074E+02   3.00016437844630E+02   3.34784838850452E+02   3.00000000000000E+02   2.99999999999999E+02
      3.00000000000000E+02
      6.83131188538250E-01
      0.00000000000000E+00   0.00000000000000E+00   0.00000000000000E+00   0.00000000000000E+00   0.00000000000000E+00
      0.00000000000000E+00   0.00000000000000E+00   1.60006330749662E-16   0.00000000000000E+00   0.00000000000000E+00
      0.00000000000000E+00   0.00000000000000E+00  -2.77790789800620E-20  -7.75659501708373E-16  -7.75687280787353E-16
     -5.63415728545886E-15   3.41565594269125E-02   3.41565594268790E-02   0.00000000000000E+00   0.00000000000000E+00
      8.34850126914674E-16   5.80447123928626E-20   8.34908171627066E-16   2.77636153660740E-15   0.00000000000000E+00
      2.38796316739570E-15   0.00000000000000E+00   0.00000000000000E+00  -5.92208908348404E-17  -4.87236104675922E-27
     -5.92208908397127E-17   2.69778941810179E-15   3.00000000000000E+02   2.99999999999999E+02   3.00000000000000E+02
      2.80024037217903E+02   3.00025263430457E+02   3.51893444223419E+02   3.00000000000000E+02   2.99999999999999E+02
      3.00000000000000E+02
      8.83131188538250E-01
      0.00000000000000E+00   0.00000000000000E+00   0.00000000000000E+00   0.00000000000000E+00   0.00000000000000E+00
      0.00000000000000E+00   0.00000000000000E+00   1.57934859639913E-16   0.00000000000000E+00   0.00000000000000E+00
      0.00000000000000E+00   0.00000000000000E+00  -3.10492124725844E-20  -9.46506500296460E-16  -9.46537549508932E-16
     -5.65490668462928E-15   4.41565594269125E-02   4.41565594268719E-02   0.00000000000000E+00   0.00000000000000E+00
      1.01372613676690E-15   6.45119246090119E-20   1.01379064869151E-15   2.79918719027050E-15   0.00000000000000E+00
      2.66349737901828E-15   0.00000000000000E+00   0.00000000000000E+00  -6.72530991800808E-17  -2.50009788996826E-27
     -6.72530991825809E-17   2.69778463471887E-15   3.00000000000000E+02   2.99999999999999E+02   3.00000000000000E+02
      2.77653568285404E+02   3.00036559131458E+02   3.74899319898168E+02   3.00000000000000E+02   2.99999999999999E+02
      3.00000000000000E+02
      1.00000000000000E+00
      0.00000000000000E+00   0.00000000000000E+00   0.00000000000000E+00   0.00000000000000E+00   0.00000000000000E+00
      0.00000000000000E+00   0.00000000000000E+00   1.56726564820486E-16   0.00000000000000E+00   0.00000000000000E+00
      0.00000000000000E+00   0.00000000000000E+00  -3.24638509726056E-20  -1.03858110524293E-15  -1.03861356909390E-15
     -5.66699872792131E-15   5.00000000000000E-02   4.99999999999556E-02   0.00000000000000E+00   0.00000000000000E+00
      1.10951299325890E-15   6.72243789098126E-20   1.10958021763781E-15   2.81249032533333E-15   0.00000000000000E+00
      2.84718685343333E-15   0.00000000000000E+00   0.00000000000000E+00  -7.09666485401854E-17  -3.73113517020013E-27
     -7.09666485439165E-17   2.69778183776750E-15   3.00000000000000E+02   2.99999999999999E+02   3.00000000000000E+02
      2.76691008564642E+02   3.00043655671864E+02   3.90005186247564E+02   3.00000000000000E+02   2.99999999999999E+02
      3.00000000000000E+02
}
